MODEL 1
REMARK VINA RESULT:      -7.2      0.000      0.000
REMARK  9 active torsions:
REMARK  status: ('A' for Active; 'I' for Inactive)
REMARK    1  A    between atoms: O_2  and  C_17 
REMARK    2  A    between atoms: N_5  and  C_10 
REMARK    3  A    between atoms: N_6  and  C_14 
REMARK       I    between atoms: N_6  and  C_23 
REMARK       I    between atoms: N_7  and  C_22 
REMARK    4  A    between atoms: C_10  and  C_13 
REMARK    5  A    between atoms: C_14  and  C_17 
REMARK    6  A    between atoms: C_14  and  C_22 
REMARK    7  A    between atoms: C_20  and  C_25 
REMARK    8  A    between atoms: C_23  and  C_24 
REMARK    9  A    between atoms: C_28  and  C_31 
ROOT
HETATM    1  O   UNL     1      15.876   3.906  94.062  1.00  0.00    -0.388 OA
HETATM    2  N   UNL     1      14.057   2.567  92.331  1.00  0.00     0.096 N 
HETATM    3  C   UNL     1      14.245   4.023  92.269  1.00  0.00     0.299 C 
HETATM    4  C   UNL     1      14.319   2.083  93.693  1.00  0.00     0.299 C 
HETATM    5  C   UNL     1      15.654   4.382  92.734  1.00  0.00     0.198 C 
HETATM    6  C   UNL     1      15.725   2.487  94.124  1.00  0.00     0.198 C 
ENDROOT
BRANCH   2   7
HETATM    7  C   UNL     1      12.709   2.201  91.900  1.00  0.00     0.311 C 
BRANCH   7   8
HETATM    8  C   UNL     1      11.859   3.393  91.617  1.00  0.00    -0.030 A 
HETATM    9  C   UNL     1      11.714   3.851  90.307  1.00  0.00     0.010 A 
HETATM   10  C   UNL     1      10.922   4.968  90.042  1.00  0.00     0.021 A 
HETATM   11  C   UNL     1      10.273   5.624  91.087  1.00  0.00     0.018 A 
HETATM   12  C   UNL     1      10.416   5.168  92.396  1.00  0.00     0.021 A 
HETATM   13  C   UNL     1      11.209   4.052  92.661  1.00  0.00     0.010 A 
BRANCH  11  14
HETATM   14  C   UNL     1       9.458   6.768  90.815  1.00  0.00    -0.061 C 
HETATM   15  C   UNL     1       8.773   7.730  90.587  1.00  0.00    -0.061 C 
BRANCH  15  16
HETATM   16  C   UNL     1       7.959   8.874  90.316  1.00  0.00     0.018 A 
HETATM   17  C   UNL     1       6.674   8.958  90.853  1.00  0.00     0.022 A 
HETATM   18  C   UNL     1       5.882  10.075  90.591  1.00  0.00     0.018 A 
HETATM   19  C   UNL     1       6.391  11.082  89.798  1.00  0.00     0.032 A 
HETATM   20  C   UNL     1       7.657  11.022  89.254  1.00  0.00     0.018 A 
HETATM   21  C   UNL     1       8.450   9.906  89.516  1.00  0.00     0.022 A 
BRANCH  19  22
HETATM   22  C   UNL     1       5.545  12.271  89.517  1.00  0.00     0.252 C 
HETATM   23  O   UNL     1       5.642  12.832  88.428  1.00  0.00    -0.268 OA
HETATM   24  N   UNL     1       4.672  12.649  90.527  1.00  0.00    -0.342 N 
HETATM   25  H   UNL     1       4.629  12.122  91.392  1.00  0.00     0.163 HD
BRANCH  24  26
HETATM   26  C   UNL     1       3.770  13.765  90.396  1.00  0.00     0.199 C 
BRANCH  26  27
HETATM   27  C   UNL     1       2.525  13.630  91.282  1.00  0.00     0.145 C 
HETATM   28  C   UNL     1       2.808  12.876  92.576  1.00  0.00     0.042 C 
BRANCH  27  29
HETATM   29  O   UNL     1       2.023  14.927  91.601  1.00  0.00    -0.393 OA
HETATM   30  H   UNL     1       1.087  14.840  91.847  1.00  0.00     0.210 HD
ENDBRANCH  27  29
ENDBRANCH  26  27
BRANCH  26  31
HETATM   31  C   UNL     1       4.550  15.034  90.725  1.00  0.00     0.220 C 
HETATM   32  O   UNL     1       4.652  15.480  91.867  1.00  0.00    -0.278 OA
HETATM   33  N   UNL     1       5.078  15.625  89.603  1.00  0.00    -0.271 NA
HETATM   34  H   UNL     1       4.938  15.335  88.642  1.00  0.00     0.127 HD
HETATM   35  H   UNL     1       4.675  16.812  88.972  1.00  0.00     0.127 HD
ENDBRANCH  26  31
ENDBRANCH  24  26
ENDBRANCH  19  22
ENDBRANCH  15  16
ENDBRANCH  11  14
ENDBRANCH   7   8
ENDBRANCH   2   7
TORSDOF 9
ENDMDL
