MODEL 1
REMARK VINA RESULT:      -6.4      0.000      0.000
REMARK  14 active torsions:
REMARK  status: ('A' for Active; 'I' for Inactive)
REMARK    1  A    between atoms: O_2  and  C_18 
REMARK    2  A    between atoms: C_5  and  C_8 
REMARK    3  A    between atoms: C_5  and  O_35 
REMARK    4  A    between atoms: C_5  and  C_36 
REMARK    5  A    between atoms: N_6  and  C_11 
REMARK    6  A    between atoms: N_7  and  C_15 
REMARK       I    between atoms: N_7  and  C_24 
REMARK    7  A    between atoms: C_8  and  C_23 
REMARK    8  A    between atoms: C_11  and  C_14 
REMARK    9  A    between atoms: C_15  and  C_18 
REMARK   10  A    between atoms: C_15  and  C_23 
REMARK   11  A    between atoms: C_21  and  C_26 
REMARK   12  A    between atoms: C_24  and  C_25 
REMARK   13  A    between atoms: C_29  and  C_32 
REMARK   14  A    between atoms: C_36  and  O_39 
ROOT
HETATM    1  O   UNL     1      16.632   3.308  93.658  1.00  0.00    -0.350 OA
HETATM    2  N   UNL     1      13.915   2.843  92.947  1.00  0.00     0.147 N 
HETATM    3  C   UNL     1      14.861   1.734  93.134  1.00  0.00     0.283 C 
HETATM    4  C   UNL     1      14.632   4.045  92.500  1.00  0.00     0.283 C 
HETATM    5  C   UNL     1      15.949   2.143  94.124  1.00  0.00     0.178 C 
HETATM    6  C   UNL     1      15.725   4.400  93.503  1.00  0.00     0.178 C 
ENDROOT
BRANCH   2   7
HETATM    7  C   UNL     1      12.869   2.476  91.994  1.00  0.00     0.277 C 
BRANCH   7   8
HETATM    8  C   UNL     1      11.721   3.426  92.018  1.00  0.00     0.011 A 
HETATM    9  C   UNL     1      10.910   3.567  90.891  1.00  0.00    -0.002 A 
HETATM   10  C   UNL     1       9.836   4.457  90.911  1.00  0.00     0.008 A 
HETATM   11  C   UNL     1       9.573   5.205  92.059  1.00  0.00     0.042 A 
HETATM   12  C   UNL     1      10.383   5.065  93.184  1.00  0.00     0.008 A 
HETATM   13  C   UNL     1      11.457   4.176  93.164  1.00  0.00    -0.002 A 
BRANCH  11  14
HETATM   14  C   UNL     1       8.471   6.116  92.080  1.00  0.00    -0.059 C 
HETATM   15  C   UNL     1       7.545   6.883  92.097  1.00  0.00    -0.059 C 
BRANCH  15  16
HETATM   16  C   UNL     1       6.443   7.794  92.118  1.00  0.00     0.042 A 
HETATM   17  C   UNL     1       6.643   9.121  92.501  1.00  0.00     0.008 A 
HETATM   18  C   UNL     1       5.569  10.010  92.518  1.00  0.00     0.005 A 
HETATM   19  C   UNL     1       4.320   9.554  92.151  1.00  0.00     0.056 A 
HETATM   20  C   UNL     1       4.096   8.248  91.769  1.00  0.00     0.005 A 
HETATM   21  C   UNL     1       5.170   7.357  91.752  1.00  0.00     0.008 A 
BRANCH  19  22
HETATM   22  C   UNL     1       3.175  10.501  92.172  1.00  0.00     0.254 C 
HETATM   23  O   UNL     1       2.064  10.091  92.496  1.00  0.00    -0.268 OA
HETATM   24  N   UNL     1       3.468  11.815  91.836  1.00  0.00    -0.335 N 
HETATM   25  HN  UNL     1       4.416  12.086  91.603  1.00  0.00     0.164 HD
BRANCH  24  26
HETATM   26  C   UNL     1       2.471  12.856  91.833  1.00  0.00     0.169 C 
BRANCH  26  27
HETATM   27  C   UNL     1       2.418  13.631  93.156  1.00  0.00     0.138 C 
HETATM   28  C   UNL     1       3.805  13.924  93.716  1.00  0.00     0.034 C 
BRANCH  27  29
HETATM   29  O   UNL     1       1.727  14.864  92.958  1.00  0.00    -0.383 OA
HETATM   30  H   UNL     1       2.386  15.577  92.901  1.00  0.00     0.210 HD
ENDBRANCH  27  29
ENDBRANCH  26  27
BRANCH  26  31
HETATM   31  C   UNL     1       2.768  13.782  90.659  1.00  0.00     0.194 C 
HETATM   32  O   UNL     1       1.888  14.363  90.025  1.00  0.00    -0.289 OA
BRANCH  31  33
HETATM   33  C   UNL     1       4.111  13.853  90.380  1.00  0.00     0.053 C 
BRANCH  33  34
HETATM   34  C   UNL     1       4.445  14.075  89.036  1.00  0.00     0.220 C 
BRANCH  34  35
HETATM   35  O   UNL     1       5.388  14.887  89.008  1.00  0.00    -0.371 OA
HETATM   36  H   UNL     1       6.099  14.269  89.084  1.00  0.00     0.211 HD
ENDBRANCH  34  35
BRANCH  34  37
HETATM   37  C   UNL     1       4.735  12.895  88.330  1.00  0.00     0.185 C 
HETATM   38  O   UNL     1       5.807  12.883  89.107  1.00  0.00    -0.647 OA
BRANCH  37  39
HETATM   39  O   UNL     1       4.249  12.269  87.436  1.00  0.00    -0.774 OA
HETATM   40  H   UNL     1       4.217  11.160  87.671  1.00  0.00     0.167 HD
ENDBRANCH  37  39
ENDBRANCH  34  37
ENDBRANCH  33  34
ENDBRANCH  31  33
ENDBRANCH  26  31
ENDBRANCH  24  26
ENDBRANCH  19  22
ENDBRANCH  15  16
ENDBRANCH  11  14
ENDBRANCH   7   8
ENDBRANCH   2   7
TORSDOF 14
ENDMDL
