MODEL 1
REMARK VINA RESULT:      -7.5      0.000      0.000
REMARK  9 active torsions:
REMARK  status: ('A' for Active; 'I' for Inactive)
REMARK    1  A    between atoms: N_3  and  C_6 
REMARK    2  A    between atoms: C_6  and  C_9 
REMARK    3  A    between atoms: C_14  and  C_17 
REMARK       I    between atoms: N_26  and  C_15 
REMARK    4  A    between atoms: C_15  and  C_16 
REMARK    5  A    between atoms: C_20  and  C_23 
REMARK    6  A    between atoms: OG1_24  and  CB_28 
REMARK    7  A    between atoms: N_26  and  CA_27 
REMARK    8  A    between atoms: CA_27  and  CB_28 
REMARK    9  A    between atoms: CA_27  and  C_30 
ROOT
HETATM    1  O   UNK A   0       1.816   8.046  87.941  1.00  0.00    -0.388 OA
HETATM    2  N   UNK A   0       4.604   7.508  87.741  1.00  0.00     0.096 N 
HETATM    3  C   UNK A   0       4.091   8.883  87.830  1.00  0.00     0.299 C 
HETATM    4  C   UNK A   0       3.606   6.639  87.103  1.00  0.00     0.299 C 
HETATM    5  C   UNK A   0       2.767   8.893  88.589  1.00  0.00     0.198 C 
HETATM    6  C   UNK A   0       2.293   6.702  87.878  1.00  0.00     0.198 C 
ENDROOT
BRANCH   2   7
HETATM    7  C   UNK A   0       5.868   7.474  87.008  1.00  0.00     0.311 C 
BRANCH   7   8
HETATM    8  C   UNK A   0       6.976   6.886  87.814  1.00  0.00    -0.030 A 
HETATM    9  C   UNK A   0       8.214   6.638  87.219  1.00  0.00     0.010 A 
HETATM   10  C   UNK A   0       9.251   6.086  87.971  1.00  0.00     0.021 A 
HETATM   11  C   UNK A   0       9.050   5.785  89.318  1.00  0.00     0.018 A 
HETATM   12  C   UNK A   0       7.814   6.032  89.913  1.00  0.00     0.021 A 
HETATM   13  C   UNK A   0       6.777   6.583  89.161  1.00  0.00     0.010 A 
BRANCH  11  14
HETATM   14  C   UNK A   0      10.114   5.220  90.090  1.00  0.00    -0.061 C 
HETATM   15  C   UNK A   0      11.008   4.746  90.739  1.00  0.00    -0.061 C 
BRANCH  15  16
HETATM   16  C   UNK A   0      12.071   4.182  91.511  1.00  0.00     0.018 A 
HETATM   17  C   UNK A   0      11.867   3.873  92.856  1.00  0.00     0.022 A 
HETATM   18  C   UNK A   0      12.903   3.320  93.608  1.00  0.00     0.018 A 
HETATM   19  C   UNK A   0      14.119   3.088  92.999  1.00  0.00     0.032 A 
HETATM   20  C   UNK A   0      14.345   3.385  91.672  1.00  0.00     0.018 A 
HETATM   21  C   UNK A   0      13.310   3.938  90.919  1.00  0.00     0.022 A 
BRANCH  19  22
HETATM   22  C   UNK A   0      15.223   2.500  93.801  1.00  0.00     0.252 C 
HETATM   23  O   UNK A   0      16.314   3.065  93.824  1.00  0.00    -0.268 OA
ENDBRANCH  19  22
ENDBRANCH  15  16
ENDBRANCH  11  14
ENDBRANCH   7   8
ENDBRANCH   2   7
TORSDOF 9
ENDMDL
MODEL 2
REMARK VINA RESULT:      -7.5      0.108      1.429
REMARK  9 active torsions:
REMARK  status: ('A' for Active; 'I' for Inactive)
REMARK    1  A    between atoms: N_3  and  C_6 
REMARK    2  A    between atoms: C_6  and  C_9 
REMARK    3  A    between atoms: C_14  and  C_17 
REMARK       I    between atoms: N_26  and  C_15 
REMARK    4  A    between atoms: C_15  and  C_16 
REMARK    5  A    between atoms: C_20  and  C_23 
REMARK    6  A    between atoms: OG1_24  and  CB_28 
REMARK    7  A    between atoms: N_26  and  CA_27 
REMARK    8  A    between atoms: CA_27  and  CB_28 
REMARK    9  A    between atoms: CA_27  and  C_30 
ROOT
HETATM    1  O   UNK A   0       1.878   7.961  87.811  1.00  0.00    -0.388 OA
HETATM    2  N   UNK A   0       4.690   7.536  87.693  1.00  0.00     0.096 N 
HETATM    3  C   UNK A   0       4.121   8.889  87.772  1.00  0.00     0.299 C 
HETATM    4  C   UNK A   0       3.747   6.631  87.021  1.00  0.00     0.299 C 
HETATM    5  C   UNK A   0       2.775   8.841  88.491  1.00  0.00     0.198 C 
HETATM    6  C   UNK A   0       2.411   6.637  87.756  1.00  0.00     0.198 C 
ENDROOT
BRANCH   2   7
HETATM    7  C   UNK A   0       5.976   7.556  86.998  1.00  0.00     0.311 C 
BRANCH   7   8
HETATM    8  C   UNK A   0       7.071   6.953  87.811  1.00  0.00    -0.030 A 
HETATM    9  C   UNK A   0       6.859   6.664  89.160  1.00  0.00     0.010 A 
HETATM   10  C   UNK A   0       7.882   6.102  89.921  1.00  0.00     0.021 A 
HETATM   11  C   UNK A   0       9.116   5.825  89.334  1.00  0.00     0.018 A 
HETATM   12  C   UNK A   0       9.329   6.112  87.987  1.00  0.00     0.021 A 
HETATM   13  C   UNK A   0       8.306   6.676  87.225  1.00  0.00     0.010 A 
BRANCH  11  14
HETATM   14  C   UNK A   0      10.166   5.246  90.115  1.00  0.00    -0.061 C 
HETATM   15  C   UNK A   0      11.048   4.759  90.771  1.00  0.00    -0.061 C 
BRANCH  15  16
HETATM   16  C   UNK A   0      12.097   4.181  91.552  1.00  0.00     0.018 A 
HETATM   17  C   UNK A   0      13.351   3.963  90.981  1.00  0.00     0.022 A 
HETATM   18  C   UNK A   0      14.375   3.401  91.744  1.00  0.00     0.018 A 
HETATM   19  C   UNK A   0      14.122   3.071  93.059  1.00  0.00     0.032 A 
HETATM   20  C   UNK A   0      12.891   3.277  93.646  1.00  0.00     0.018 A 
HETATM   21  C   UNK A   0      11.866   3.838  92.884  1.00  0.00     0.022 A 
BRANCH  19  22
HETATM   22  C   UNK A   0      15.212   2.471  93.871  1.00  0.00     0.252 C 
HETATM   23  O   UNK A   0      16.359   2.894  93.741  1.00  0.00    -0.268 OA
ENDBRANCH  19  22
ENDBRANCH  15  16
ENDBRANCH  11  14
ENDBRANCH   7   8
ENDBRANCH   2   7
TORSDOF 9
ENDMDL
MODEL 3
REMARK VINA RESULT:      -7.5      0.121      1.014
REMARK  9 active torsions:
REMARK  status: ('A' for Active; 'I' for Inactive)
REMARK    1  A    between atoms: N_3  and  C_6 
REMARK    2  A    between atoms: C_6  and  C_9 
REMARK    3  A    between atoms: C_14  and  C_17 
REMARK       I    between atoms: N_26  and  C_15 
REMARK    4  A    between atoms: C_15  and  C_16 
REMARK    5  A    between atoms: C_20  and  C_23 
REMARK    6  A    between atoms: OG1_24  and  CB_28 
REMARK    7  A    between atoms: N_26  and  CA_27 
REMARK    8  A    between atoms: CA_27  and  CB_28 
REMARK    9  A    between atoms: CA_27  and  C_30 
ROOT
HETATM    1  O   UNK A   0       1.756   7.947  87.812  1.00  0.00    -0.388 OA
HETATM    2  N   UNK A   0       4.574   7.566  87.690  1.00  0.00     0.096 N 
HETATM    3  C   UNK A   0       3.984   8.909  87.772  1.00  0.00     0.299 C 
HETATM    4  C   UNK A   0       3.644   6.648  87.019  1.00  0.00     0.299 C 
HETATM    5  C   UNK A   0       2.640   8.840  88.493  1.00  0.00     0.198 C 
HETATM    6  C   UNK A   0       2.309   6.632  87.755  1.00  0.00     0.198 C 
ENDROOT
BRANCH   2   7
HETATM    7  C   UNK A   0       5.859   7.607  86.994  1.00  0.00     0.311 C 
BRANCH   7   8
HETATM    8  C   UNK A   0       6.958   6.996  87.794  1.00  0.00    -0.030 A 
HETATM    9  C   UNK A   0       6.778   6.756  89.157  1.00  0.00     0.010 A 
HETATM   10  C   UNK A   0       7.806   6.187  89.907  1.00  0.00     0.021 A 
HETATM   11  C   UNK A   0       9.014   5.856  89.294  1.00  0.00     0.018 A 
HETATM   12  C   UNK A   0       9.196   6.095  87.934  1.00  0.00     0.021 A 
HETATM   13  C   UNK A   0       8.167   6.665  87.183  1.00  0.00     0.010 A 
BRANCH  11  14
HETATM   14  C   UNK A   0      10.069   5.270  90.064  1.00  0.00    -0.061 C 
HETATM   15  C   UNK A   0      10.955   4.777  90.709  1.00  0.00    -0.061 C 
BRANCH  15  16
HETATM   16  C   UNK A   0      12.009   4.193  91.478  1.00  0.00     0.018 A 
HETATM   17  C   UNK A   0      11.781   3.821  92.803  1.00  0.00     0.022 A 
HETATM   18  C   UNK A   0      12.809   3.248  93.552  1.00  0.00     0.018 A 
HETATM   19  C   UNK A   0      14.040   3.059  92.960  1.00  0.00     0.032 A 
HETATM   20  C   UNK A   0      14.291   3.418  91.652  1.00  0.00     0.018 A 
HETATM   21  C   UNK A   0      13.264   3.992  90.902  1.00  0.00     0.022 A 
BRANCH  19  22
HETATM   22  C   UNK A   0      15.135   2.450  93.758  1.00  0.00     0.252 C 
HETATM   23  O   UNK A   0      16.271   2.910  93.667  1.00  0.00    -0.268 OA
ENDBRANCH  19  22
ENDBRANCH  15  16
ENDBRANCH  11  14
ENDBRANCH   7   8
ENDBRANCH   2   7
TORSDOF 9
ENDMDL
MODEL 4
REMARK VINA RESULT:      -7.0      1.094      1.282
REMARK  9 active torsions:
REMARK  status: ('A' for Active; 'I' for Inactive)
REMARK    1  A    between atoms: N_3  and  C_6 
REMARK    2  A    between atoms: C_6  and  C_9 
REMARK    3  A    between atoms: C_14  and  C_17 
REMARK       I    between atoms: N_26  and  C_15 
REMARK    4  A    between atoms: C_15  and  C_16 
REMARK    5  A    between atoms: C_20  and  C_23 
REMARK    6  A    between atoms: OG1_24  and  CB_28 
REMARK    7  A    between atoms: N_26  and  CA_27 
REMARK    8  A    between atoms: CA_27  and  CB_28 
REMARK    9  A    between atoms: CA_27  and  C_30 
ROOT
HETATM    1  O   UNK A   0       2.159   6.898  86.717  1.00  0.00    -0.388 OA
HETATM    2  N   UNK A   0       4.134   7.844  88.535  1.00  0.00     0.096 N 
HETATM    3  C   UNK A   0       2.942   8.641  88.213  1.00  0.00     0.299 C 
HETATM    4  C   UNK A   0       4.486   6.982  87.398  1.00  0.00     0.299 C 
HETATM    5  C   UNK A   0       1.790   7.716  87.829  1.00  0.00     0.198 C 
HETATM    6  C   UNK A   0       3.299   6.097  87.033  1.00  0.00     0.198 C 
ENDROOT
BRANCH   2   7
HETATM    7  C   UNK A   0       5.254   8.712  88.896  1.00  0.00     0.311 C 
BRANCH   7   8
HETATM    8  C   UNK A   0       6.421   7.945  89.418  1.00  0.00    -0.030 A 
HETATM    9  C   UNK A   0       7.627   7.947  88.715  1.00  0.00     0.010 A 
HETATM   10  C   UNK A   0       8.718   7.228  89.202  1.00  0.00     0.021 A 
HETATM   11  C   UNK A   0       8.605   6.509  90.391  1.00  0.00     0.018 A 
HETATM   12  C   UNK A   0       7.401   6.506  91.093  1.00  0.00     0.021 A 
HETATM   13  C   UNK A   0       6.309   7.224  90.607  1.00  0.00     0.010 A 
BRANCH  11  14
HETATM   14  C   UNK A   0       9.725   5.773  90.891  1.00  0.00    -0.061 C 
HETATM   15  C   UNK A   0      10.667   5.155  91.310  1.00  0.00    -0.061 C 
BRANCH  15  16
HETATM   16  C   UNK A   0      11.788   4.420  91.809  1.00  0.00     0.018 A 
HETATM   17  C   UNK A   0      11.770   3.922  93.112  1.00  0.00     0.022 A 
HETATM   18  C   UNK A   0      12.862   3.203  93.597  1.00  0.00     0.018 A 
HETATM   19  C   UNK A   0      13.946   2.997  92.770  1.00  0.00     0.032 A 
HETATM   20  C   UNK A   0      13.988   3.479  91.478  1.00  0.00     0.018 A 
HETATM   21  C   UNK A   0      12.896   4.199  90.992  1.00  0.00     0.022 A 
BRANCH  19  22
HETATM   22  C   UNK A   0      15.110   2.232  93.288  1.00  0.00     0.252 C 
HETATM   23  O   UNK A   0      16.183   2.809  93.449  1.00  0.00    -0.268 OA
ENDBRANCH  19  22
ENDBRANCH  15  16
ENDBRANCH  11  14
ENDBRANCH   7   8
ENDBRANCH   2   7
TORSDOF 9
ENDMDL
MODEL 5
REMARK VINA RESULT:      -6.9      1.567      2.217
REMARK  9 active torsions:
REMARK  status: ('A' for Active; 'I' for Inactive)
REMARK    1  A    between atoms: N_3  and  C_6 
REMARK    2  A    between atoms: C_6  and  C_9 
REMARK    3  A    between atoms: C_14  and  C_17 
REMARK       I    between atoms: N_26  and  C_15 
REMARK    4  A    between atoms: C_15  and  C_16 
REMARK    5  A    between atoms: C_20  and  C_23 
REMARK    6  A    between atoms: OG1_24  and  CB_28 
REMARK    7  A    between atoms: N_26  and  CA_27 
REMARK    8  A    between atoms: CA_27  and  CB_28 
REMARK    9  A    between atoms: CA_27  and  C_30 
ROOT
HETATM    1  O   UNK A   0       2.990  11.399  89.695  1.00  0.00    -0.388 OA
HETATM    2  N   UNK A   0       4.674   9.283  88.805  1.00  0.00     0.096 N 
HETATM    3  C   UNK A   0       3.829  10.038  87.869  1.00  0.00     0.299 C 
HETATM    4  C   UNK A   0       4.056   9.265  90.138  1.00  0.00     0.299 C 
HETATM    5  C   UNK A   0       3.599  11.449  88.403  1.00  0.00     0.198 C 
HETATM    6  C   UNK A   0       3.820  10.694  90.619  1.00  0.00     0.198 C 
ENDROOT
BRANCH   2   7
HETATM    7  C   UNK A   0       4.899   7.923  88.318  1.00  0.00     0.311 C 
BRANCH   7   8
HETATM    8  C   UNK A   0       6.119   7.303  88.909  1.00  0.00    -0.030 A 
HETATM    9  C   UNK A   0       7.353   7.943  88.789  1.00  0.00     0.010 A 
HETATM   10  C   UNK A   0       8.496   7.363  89.339  1.00  0.00     0.021 A 
HETATM   11  C   UNK A   0       8.403   6.144  90.011  1.00  0.00     0.018 A 
HETATM   12  C   UNK A   0       7.171   5.505  90.132  1.00  0.00     0.021 A 
HETATM   13  C   UNK A   0       6.028   6.084  89.581  1.00  0.00     0.010 A 
BRANCH  11  14
HETATM   14  C   UNK A   0       9.575   5.550  90.577  1.00  0.00    -0.061 C 
HETATM   15  C   UNK A   0      10.560   5.051  91.054  1.00  0.00    -0.061 C 
BRANCH  15  16
HETATM   16  C   UNK A   0      11.730   4.457  91.620  1.00  0.00     0.018 A 
HETATM   17  C   UNK A   0      12.860   4.252  90.828  1.00  0.00     0.022 A 
HETATM   18  C   UNK A   0      14.003   3.674  91.382  1.00  0.00     0.018 A 
HETATM   19  C   UNK A   0      13.991   3.316  92.713  1.00  0.00     0.032 A 
HETATM   20  C   UNK A   0      12.886   3.509  93.517  1.00  0.00     0.018 A 
HETATM   21  C   UNK A   0      11.743   4.086  92.965  1.00  0.00     0.022 A 
BRANCH  19  22
HETATM   22  C   UNK A   0      15.208   2.700  93.302  1.00  0.00     0.252 C 
HETATM   23  O   UNK A   0      16.114   3.426  93.702  1.00  0.00    -0.268 OA
ENDBRANCH  19  22
ENDBRANCH  15  16
ENDBRANCH  11  14
ENDBRANCH   7   8
ENDBRANCH   2   7
TORSDOF 9
ENDMDL
MODEL 6
REMARK VINA RESULT:      -6.6      3.494     10.348
REMARK  9 active torsions:
REMARK  status: ('A' for Active; 'I' for Inactive)
REMARK    1  A    between atoms: N_3  and  C_6 
REMARK    2  A    between atoms: C_6  and  C_9 
REMARK    3  A    between atoms: C_14  and  C_17 
REMARK       I    between atoms: N_26  and  C_15 
REMARK    4  A    between atoms: C_15  and  C_16 
REMARK    5  A    between atoms: C_20  and  C_23 
REMARK    6  A    between atoms: OG1_24  and  CB_28 
REMARK    7  A    between atoms: N_26  and  CA_27 
REMARK    8  A    between atoms: CA_27  and  CB_28 
REMARK    9  A    between atoms: CA_27  and  C_30 
ROOT
HETATM    1  O   UNK A   0      16.224   3.172  93.628  1.00  0.00    -0.388 OA
HETATM    2  N   UNK A   0      13.513   2.901  92.805  1.00  0.00     0.096 N 
HETATM    3  C   UNK A   0      14.346   1.728  93.103  1.00  0.00     0.299 C 
HETATM    4  C   UNK A   0      14.354   4.007  92.328  1.00  0.00     0.299 C 
HETATM    5  C   UNK A   0      15.418   2.101  94.123  1.00  0.00     0.198 C 
HETATM    6  C   UNK A   0      15.426   4.327  93.365  1.00  0.00     0.198 C 
ENDROOT
BRANCH   2   7
HETATM    7  C   UNK A   0      12.484   2.568  91.821  1.00  0.00     0.311 C 
BRANCH   7   8
HETATM    8  C   UNK A   0      11.613   3.733  91.494  1.00  0.00    -0.030 A 
HETATM    9  C   UNK A   0      11.369   4.068  90.162  1.00  0.00     0.010 A 
HETATM   10  C   UNK A   0      10.556   5.159  89.855  1.00  0.00     0.021 A 
HETATM   11  C   UNK A   0       9.986   5.913  90.881  1.00  0.00     0.018 A 
HETATM   12  C   UNK A   0      10.229   5.579  92.211  1.00  0.00     0.021 A 
HETATM   13  C   UNK A   0      11.042   4.489  92.519  1.00  0.00     0.010 A 
BRANCH  11  14
HETATM   14  C   UNK A   0       9.150   7.031  90.566  1.00  0.00    -0.061 C 
HETATM   15  C   UNK A   0       8.447   7.970  90.301  1.00  0.00    -0.061 C 
BRANCH  15  16
HETATM   16  C   UNK A   0       7.612   9.087  89.987  1.00  0.00     0.018 A 
HETATM   17  C   UNK A   0       8.185  10.299  89.604  1.00  0.00     0.022 A 
HETATM   18  C   UNK A   0       7.370  11.388  89.295  1.00  0.00     0.018 A 
HETATM   19  C   UNK A   0       6.001  11.240  89.376  1.00  0.00     0.032 A 
HETATM   20  C   UNK A   0       5.410  10.052  89.753  1.00  0.00     0.018 A 
HETATM   21  C   UNK A   0       6.224   8.963  90.062  1.00  0.00     0.022 A 
BRANCH  19  22
HETATM   22  C   UNK A   0       5.133  12.401  89.049  1.00  0.00     0.252 C 
HETATM   23  O   UNK A   0       4.799  12.590  87.881  1.00  0.00    -0.268 OA
ENDBRANCH  19  22
ENDBRANCH  15  16
ENDBRANCH  11  14
ENDBRANCH   7   8
ENDBRANCH   2   7
TORSDOF 9
ENDMDL
MODEL 7
REMARK VINA RESULT:      -6.6      3.956     10.413
REMARK  9 active torsions:
REMARK  status: ('A' for Active; 'I' for Inactive)
REMARK    1  A    between atoms: N_3  and  C_6 
REMARK    2  A    between atoms: C_6  and  C_9 
REMARK    3  A    between atoms: C_14  and  C_17 
REMARK       I    between atoms: N_26  and  C_15 
REMARK    4  A    between atoms: C_15  and  C_16 
REMARK    5  A    between atoms: C_20  and  C_23 
REMARK    6  A    between atoms: OG1_24  and  CB_28 
REMARK    7  A    between atoms: N_26  and  CA_27 
REMARK    8  A    between atoms: CA_27  and  CB_28 
REMARK    9  A    between atoms: CA_27  and  C_30 
ROOT
HETATM    1  O   UNK A   0      14.597   3.351  92.121  1.00  0.00    -0.388 OA
HETATM    2  N   UNK A   0      11.876   4.168  92.307  1.00  0.00     0.096 N 
HETATM    3  C   UNK A   0      12.490   3.305  93.325  1.00  0.00     0.299 C 
HETATM    4  C   UNK A   0      12.528   3.954  91.007  1.00  0.00     0.299 C 
HETATM    5  C   UNK A   0      13.991   3.575  93.395  1.00  0.00     0.198 C 
HETATM    6  C   UNK A   0      14.026   4.208  91.131  1.00  0.00     0.198 C 
ENDROOT
BRANCH   2   7
HETATM    7  C   UNK A   0      10.439   3.918  92.215  1.00  0.00     0.311 C 
BRANCH   7   8
HETATM    8  C   UNK A   0       9.664   5.158  91.925  1.00  0.00    -0.030 A 
HETATM    9  C   UNK A   0       9.857   6.298  92.707  1.00  0.00     0.010 A 
HETATM   10  C   UNK A   0       9.131   7.458  92.438  1.00  0.00     0.021 A 
HETATM   11  C   UNK A   0       8.215   7.478  91.387  1.00  0.00     0.018 A 
HETATM   12  C   UNK A   0       8.022   6.341  90.606  1.00  0.00     0.021 A 
HETATM   13  C   UNK A   0       8.747   5.180  90.875  1.00  0.00     0.010 A 
BRANCH  11  14
HETATM   14  C   UNK A   0       7.472   8.669  91.110  1.00  0.00    -0.061 C 
HETATM   15  C   UNK A   0       6.847   9.670  90.877  1.00  0.00    -0.061 C 
BRANCH  15  16
HETATM   16  C   UNK A   0       6.104  10.860  90.600  1.00  0.00     0.018 A 
HETATM   17  C   UNK A   0       5.262  11.397  91.575  1.00  0.00     0.022 A 
HETATM   18  C   UNK A   0       4.539  12.559  91.306  1.00  0.00     0.018 A 
HETATM   19  C   UNK A   0       4.674  13.158  90.070  1.00  0.00     0.032 A 
HETATM   20  C   UNK A   0       5.499  12.646  89.091  1.00  0.00     0.018 A 
HETATM   21  C   UNK A   0       6.223  11.484  89.358  1.00  0.00     0.022 A 
BRANCH  19  22
HETATM   22  C   UNK A   0       3.903  14.395  89.784  1.00  0.00     0.252 C 
HETATM   23  O   UNK A   0       4.449  15.487  89.917  1.00  0.00    -0.268 OA
ENDBRANCH  19  22
ENDBRANCH  15  16
ENDBRANCH  11  14
ENDBRANCH   7   8
ENDBRANCH   2   7
TORSDOF 9
ENDMDL
MODEL 8
REMARK VINA RESULT:      -6.4      1.813      2.719
REMARK  9 active torsions:
REMARK  status: ('A' for Active; 'I' for Inactive)
REMARK    1  A    between atoms: N_3  and  C_6 
REMARK    2  A    between atoms: C_6  and  C_9 
REMARK    3  A    between atoms: C_14  and  C_17 
REMARK       I    between atoms: N_26  and  C_15 
REMARK    4  A    between atoms: C_15  and  C_16 
REMARK    5  A    between atoms: C_20  and  C_23 
REMARK    6  A    between atoms: OG1_24  and  CB_28 
REMARK    7  A    between atoms: N_26  and  CA_27 
REMARK    8  A    between atoms: CA_27  and  CB_28 
REMARK    9  A    between atoms: CA_27  and  C_30 
ROOT
HETATM    1  O   UNK A   0       2.915   9.816  88.134  1.00  0.00    -0.388 OA
HETATM    2  N   UNK A   0       4.290   8.183  90.017  1.00  0.00     0.096 N 
HETATM    3  C   UNK A   0       3.044   7.737  89.380  1.00  0.00     0.299 C 
HETATM    4  C   UNK A   0       4.311   9.649  90.112  1.00  0.00     0.299 C 
HETATM    5  C   UNK A   0       2.901   8.393  88.009  1.00  0.00     0.198 C 
HETATM    6  C   UNK A   0       4.137  10.260  88.725  1.00  0.00     0.198 C 
ENDROOT
BRANCH   2   7
HETATM    7  C   UNK A   0       4.443   7.575  91.338  1.00  0.00     0.311 C 
BRANCH   7   8
HETATM    8  C   UNK A   0       5.790   6.967  91.531  1.00  0.00    -0.030 A 
HETATM    9  C   UNK A   0       6.330   6.863  92.813  1.00  0.00     0.010 A 
HETATM   10  C   UNK A   0       7.592   6.296  92.995  1.00  0.00     0.021 A 
HETATM   11  C   UNK A   0       8.311   5.832  91.894  1.00  0.00     0.018 A 
HETATM   12  C   UNK A   0       7.773   5.935  90.613  1.00  0.00     0.021 A 
HETATM   13  C   UNK A   0       6.512   6.502  90.431  1.00  0.00     0.010 A 
BRANCH  11  14
HETATM   14  C   UNK A   0       9.605   5.249  92.081  1.00  0.00    -0.061 C 
HETATM   15  C   UNK A   0      10.692   4.759  92.237  1.00  0.00    -0.061 C 
BRANCH  15  16
HETATM   16  C   UNK A   0      11.984   4.177  92.423  1.00  0.00     0.018 A 
HETATM   17  C   UNK A   0      12.276   3.492  93.603  1.00  0.00     0.022 A 
HETATM   18  C   UNK A   0      13.536   2.922  93.784  1.00  0.00     0.018 A 
HETATM   19  C   UNK A   0      14.475   3.049  92.782  1.00  0.00     0.032 A 
HETATM   20  C   UNK A   0      14.211   3.721  91.607  1.00  0.00     0.018 A 
HETATM   21  C   UNK A   0      12.951   4.291  91.425  1.00  0.00     0.022 A 
BRANCH  19  22
HETATM   22  C   UNK A   0      15.818   2.443  92.975  1.00  0.00     0.252 C 
HETATM   23  O   UNK A   0      16.594   2.951  93.780  1.00  0.00    -0.268 OA
ENDBRANCH  19  22
ENDBRANCH  15  16
ENDBRANCH  11  14
ENDBRANCH   7   8
ENDBRANCH   2   7
TORSDOF 9
ENDMDL
MODEL 9
REMARK VINA RESULT:      -6.4      3.361      4.297
REMARK  9 active torsions:
REMARK  status: ('A' for Active; 'I' for Inactive)
REMARK    1  A    between atoms: N_3  and  C_6 
REMARK    2  A    between atoms: C_6  and  C_9 
REMARK    3  A    between atoms: C_14  and  C_17 
REMARK       I    between atoms: N_26  and  C_15 
REMARK    4  A    between atoms: C_15  and  C_16 
REMARK    5  A    between atoms: C_20  and  C_23 
REMARK    6  A    between atoms: OG1_24  and  CB_28 
REMARK    7  A    between atoms: N_26  and  CA_27 
REMARK    8  A    between atoms: CA_27  and  CB_28 
REMARK    9  A    between atoms: CA_27  and  C_30 
ROOT
HETATM    1  O   UNK A   0       4.237  15.056  89.913  1.00  0.00    -0.388 OA
HETATM    2  N   UNK A   0       4.900  12.329  89.436  1.00  0.00     0.096 N 
HETATM    3  C   UNK A   0       4.846  13.308  88.342  1.00  0.00     0.299 C 
HETATM    4  C   UNK A   0       3.973  12.719  90.508  1.00  0.00     0.299 C 
HETATM    5  C   UNK A   0       5.159  14.702  88.880  1.00  0.00     0.198 C 
HETATM    6  C   UNK A   0       4.306  14.126  90.994  1.00  0.00     0.198 C 
ENDROOT
BRANCH   2   7
HETATM    7  C   UNK A   0       4.593  10.987  88.945  1.00  0.00     0.311 C 
BRANCH   7   8
HETATM    8  C   UNK A   0       5.627   9.987  89.339  1.00  0.00    -0.030 A 
HETATM    9  C   UNK A   0       6.925  10.407  89.631  1.00  0.00     0.010 A 
HETATM   10  C   UNK A   0       7.894   9.472  89.997  1.00  0.00     0.021 A 
HETATM   11  C   UNK A   0       7.563   8.120  90.072  1.00  0.00     0.018 A 
HETATM   12  C   UNK A   0       6.267   7.700  89.781  1.00  0.00     0.021 A 
HETATM   13  C   UNK A   0       5.298   8.634  89.414  1.00  0.00     0.010 A 
BRANCH  11  14
HETATM   14  C   UNK A   0       8.556   7.162  90.450  1.00  0.00    -0.061 C 
HETATM   15  C   UNK A   0       9.392   6.357  90.767  1.00  0.00    -0.061 C 
BRANCH  15  16
HETATM   16  C   UNK A   0      10.384   5.400  91.145  1.00  0.00     0.018 A 
HETATM   17  C   UNK A   0      11.114   4.729  90.163  1.00  0.00     0.022 A 
HETATM   18  C   UNK A   0      12.084   3.797  90.533  1.00  0.00     0.018 A 
HETATM   19  C   UNK A   0      12.303   3.558  91.873  1.00  0.00     0.032 A 
HETATM   20  C   UNK A   0      11.595   4.208  92.862  1.00  0.00     0.018 A 
HETATM   21  C   UNK A   0      10.624   5.140  92.494  1.00  0.00     0.022 A 
BRANCH  19  22
HETATM   22  C   UNK A   0      13.336   2.564  92.266  1.00  0.00     0.252 C 
HETATM   23  O   UNK A   0      14.485   2.944  92.476  1.00  0.00    -0.268 OA
ENDBRANCH  19  22
ENDBRANCH  15  16
ENDBRANCH  11  14
ENDBRANCH   7   8
ENDBRANCH   2   7
TORSDOF 9
ENDMDL
