MODEL 1
REMARK VINA RESULT:      -6.5      0.000      0.000
REMARK  14 active torsions:
REMARK  status: ('A' for Active; 'I' for Inactive)
REMARK    1  A    between atoms: O_2  and  C_18 
REMARK    2  A    between atoms: C_5  and  C_8 
REMARK    3  A    between atoms: C_5  and  O_35 
REMARK    4  A    between atoms: C_5  and  C_36 
REMARK    5  A    between atoms: N_6  and  C_11 
REMARK    6  A    between atoms: N_7  and  C_15 
REMARK       I    between atoms: N_7  and  C_24 
REMARK    7  A    between atoms: C_8  and  C_23 
REMARK    8  A    between atoms: C_11  and  C_14 
REMARK    9  A    between atoms: C_15  and  C_18 
REMARK   10  A    between atoms: C_15  and  C_23 
REMARK   11  A    between atoms: C_21  and  C_26 
REMARK   12  A    between atoms: C_24  and  C_25 
REMARK   13  A    between atoms: C_29  and  C_32 
REMARK   14  A    between atoms: C_36  and  O_39 
ROOT
HETATM    1  O   UNL     1      16.595   3.271  93.655  1.00  0.00    -0.350 OA
HETATM    2  N   UNL     1      13.899   2.855  92.844  1.00  0.00     0.147 N 
HETATM    3  C   UNL     1      14.806   1.728  93.101  1.00  0.00     0.283 C 
HETATM    4  C   UNL     1      14.665   4.025  92.394  1.00  0.00     0.283 C 
HETATM    5  C   UNL     1      15.863   2.138  94.124  1.00  0.00     0.178 C 
HETATM    6  C   UNL     1      15.724   4.381  93.432  1.00  0.00     0.178 C 
ENDROOT
BRANCH   2   7
HETATM    7  C   UNL     1      12.884   2.488  91.858  1.00  0.00     0.277 C 
BRANCH   7   8
HETATM    8  C   UNL     1      11.746   3.450  91.829  1.00  0.00     0.011 A 
HETATM    9  C   UNL     1      11.256   3.986  93.021  1.00  0.00    -0.002 A 
HETATM   10  C   UNL     1      10.190   4.885  92.995  1.00  0.00     0.008 A 
HETATM   11  C   UNL     1       9.616   5.249  91.777  1.00  0.00     0.042 A 
HETATM   12  C   UNL     1      10.104   4.714  90.587  1.00  0.00     0.008 A 
HETATM   13  C   UNL     1      11.169   3.815  90.612  1.00  0.00    -0.002 A 
BRANCH  11  14
HETATM   14  C   UNL     1       8.523   6.172  91.751  1.00  0.00    -0.059 C 
HETATM   15  C   UNL     1       7.605   6.949  91.728  1.00  0.00    -0.059 C 
BRANCH  15  16
HETATM   16  C   UNL     1       6.513   7.871  91.701  1.00  0.00     0.042 A 
HETATM   17  C   UNL     1       6.675   9.157  92.217  1.00  0.00     0.008 A 
HETATM   18  C   UNL     1       5.610  10.058  92.188  1.00  0.00     0.005 A 
HETATM   19  C   UNL     1       4.409   9.653  91.645  1.00  0.00     0.056 A 
HETATM   20  C   UNL     1       4.224   8.387  91.129  1.00  0.00     0.005 A 
HETATM   21  C   UNL     1       5.288   7.486  91.158  1.00  0.00     0.008 A 
BRANCH  19  22
HETATM   22  C   UNL     1       3.275  10.612  91.616  1.00  0.00     0.254 C 
HETATM   23  O   UNL     1       2.163  10.216  91.277  1.00  0.00    -0.268 OA
HETATM   24  N   UNL     1       3.566  11.911  92.010  1.00  0.00    -0.335 N 
HETATM   25  HN  UNL     1       4.504  12.160  92.302  1.00  0.00     0.164 HD
BRANCH  24  26
HETATM   26  C   UNL     1       2.568  12.949  92.059  1.00  0.00     0.169 C 
BRANCH  26  27
HETATM   27  C   UNL     1       2.557  13.698  93.397  1.00  0.00     0.138 C 
HETATM   28  C   UNL     1       3.959  14.060  93.876  1.00  0.00     0.034 C 
BRANCH  27  29
HETATM   29  O   UNL     1       1.789  14.894  93.268  1.00  0.00    -0.383 OA
HETATM   30  H   UNL     1       2.268  15.502  92.680  1.00  0.00     0.210 HD
ENDBRANCH  27  29
ENDBRANCH  26  27
BRANCH  26  31
HETATM   31  C   UNL     1       2.826  13.898  90.894  1.00  0.00     0.194 C 
HETATM   32  O   UNL     1       1.942  14.576  90.373  1.00  0.00    -0.289 OA
BRANCH  31  33
HETATM   33  C   UNL     1       4.137  13.872  90.483  1.00  0.00     0.053 C 
BRANCH  33  34
HETATM   34  C   UNL     1       4.348  14.029  89.106  1.00  0.00     0.220 C 
BRANCH  34  35
HETATM   35  O   UNL     1       5.252  14.872  88.954  1.00  0.00    -0.371 OA
HETATM   36  H   UNL     1       5.963  14.275  88.777  1.00  0.00     0.211 HD
ENDBRANCH  34  35
BRANCH  34  37
HETATM   37  C   UNL     1       4.625  12.823  88.440  1.00  0.00     0.185 C 
HETATM   38  O   UNL     1       5.414  12.615  89.483  1.00  0.00    -0.647 OA
BRANCH  37  39
HETATM   39  O   UNL     1       4.316  12.302  87.411  1.00  0.00    -0.774 OA
HETATM   40  H   UNL     1       4.514  12.979  86.522  1.00  0.00     0.167 HD
ENDBRANCH  37  39
ENDBRANCH  34  37
ENDBRANCH  33  34
ENDBRANCH  31  33
ENDBRANCH  26  31
ENDBRANCH  24  26
ENDBRANCH  19  22
ENDBRANCH  15  16
ENDBRANCH  11  14
ENDBRANCH   7   8
ENDBRANCH   2   7
TORSDOF 14
ENDMDL
MODEL 2
REMARK VINA RESULT:      -6.2      0.917      1.551
REMARK  14 active torsions:
REMARK  status: ('A' for Active; 'I' for Inactive)
REMARK    1  A    between atoms: O_2  and  C_18 
REMARK    2  A    between atoms: C_5  and  C_8 
REMARK    3  A    between atoms: C_5  and  O_35 
REMARK    4  A    between atoms: C_5  and  C_36 
REMARK    5  A    between atoms: N_6  and  C_11 
REMARK    6  A    between atoms: N_7  and  C_15 
REMARK       I    between atoms: N_7  and  C_24 
REMARK    7  A    between atoms: C_8  and  C_23 
REMARK    8  A    between atoms: C_11  and  C_14 
REMARK    9  A    between atoms: C_15  and  C_18 
REMARK   10  A    between atoms: C_15  and  C_23 
REMARK   11  A    between atoms: C_21  and  C_26 
REMARK   12  A    between atoms: C_24  and  C_25 
REMARK   13  A    between atoms: C_29  and  C_32 
REMARK   14  A    between atoms: C_36  and  O_39 
ROOT
HETATM    1  O   UNL     1      17.028   3.410  93.732  1.00  0.00    -0.350 OA
HETATM    2  N   UNL     1      14.343   2.968  92.896  1.00  0.00     0.147 N 
HETATM    3  C   UNL     1      15.285   1.854  93.076  1.00  0.00     0.283 C 
HETATM    4  C   UNL     1      15.073   4.189  92.526  1.00  0.00     0.283 C 
HETATM    5  C   UNL     1      16.331   2.226  94.124  1.00  0.00     0.178 C 
HETATM    6  C   UNL     1      16.123   4.505  93.585  1.00  0.00     0.178 C 
ENDROOT
BRANCH   2   7
HETATM    7  C   UNL     1      13.338   2.637  91.888  1.00  0.00     0.277 C 
BRANCH   7   8
HETATM    8  C   UNL     1      12.201   3.602  91.882  1.00  0.00     0.011 A 
HETATM    9  C   UNL     1      11.720   4.104  90.672  1.00  0.00    -0.002 A 
HETATM   10  C   UNL     1      10.659   5.009  90.665  1.00  0.00     0.008 A 
HETATM   11  C   UNL     1      10.077   5.409  91.868  1.00  0.00     0.042 A 
HETATM   12  C   UNL     1      10.557   4.908  93.077  1.00  0.00     0.008 A 
HETATM   13  C   UNL     1      11.619   4.005  93.084  1.00  0.00    -0.002 A 
BRANCH  11  14
HETATM   14  C   UNL     1       8.987   6.336  91.860  1.00  0.00    -0.059 C 
HETATM   15  C   UNL     1       8.070   7.114  91.854  1.00  0.00    -0.059 C 
BRANCH  15  16
HETATM   16  C   UNL     1       6.980   8.039  91.846  1.00  0.00     0.042 A 
HETATM   17  C   UNL     1       5.820   7.742  91.130  1.00  0.00     0.008 A 
HETATM   18  C   UNL     1       4.756   8.643  91.125  1.00  0.00     0.005 A 
HETATM   19  C   UNL     1       4.874   9.819  91.835  1.00  0.00     0.056 A 
HETATM   20  C   UNL     1       6.011  10.136  92.550  1.00  0.00     0.005 A 
HETATM   21  C   UNL     1       7.076   9.236  92.556  1.00  0.00     0.008 A 
BRANCH  19  22
HETATM   22  C   UNL     1       3.741  10.780  91.828  1.00  0.00     0.254 C 
HETATM   23  O   UNL     1       2.605  10.368  92.050  1.00  0.00    -0.268 OA
HETATM   24  N   UNL     1       4.070  12.107  91.587  1.00  0.00    -0.335 N 
HETATM   25  HN  UNL     1       5.035  12.376  91.437  1.00  0.00     0.164 HD
BRANCH  24  26
HETATM   26  C   UNL     1       3.086  13.159  91.572  1.00  0.00     0.169 C 
BRANCH  26  27
HETATM   27  C   UNL     1       3.400  14.280  92.571  1.00  0.00     0.138 C 
HETATM   28  C   UNL     1       4.572  15.147  92.125  1.00  0.00     0.034 C 
BRANCH  27  29
HETATM   29  O   UNL     1       2.249  15.107  92.739  1.00  0.00    -0.383 OA
HETATM   30  H   UNL     1       1.593  14.614  93.260  1.00  0.00     0.210 HD
ENDBRANCH  27  29
ENDBRANCH  26  27
BRANCH  26  31
HETATM   31  C   UNL     1       2.998  13.695  90.147  1.00  0.00     0.194 C 
HETATM   32  O   UNL     1       2.067  14.393  89.750  1.00  0.00    -0.289 OA
BRANCH  31  33
HETATM   33  C   UNL     1       4.049  13.274  89.369  1.00  0.00     0.053 C 
BRANCH  33  34
HETATM   34  C   UNL     1       3.707  12.741  88.118  1.00  0.00     0.220 C 
BRANCH  34  35
HETATM   35  O   UNL     1       4.650  12.968  87.337  1.00  0.00    -0.371 OA
HETATM   36  H   UNL     1       4.760  12.091  87.002  1.00  0.00     0.211 HD
ENDBRANCH  34  35
BRANCH  34  37
HETATM   37  C   UNL     1       3.368  11.378  88.163  1.00  0.00     0.185 C 
HETATM   38  O   UNL     1       4.643  11.236  88.491  1.00  0.00    -0.647 OA
BRANCH  37  39
HETATM   39  O   UNL     1       2.400  10.710  87.953  1.00  0.00    -0.774 OA
HETATM   40  H   UNL     1       2.172  10.018  88.822  1.00  0.00     0.167 HD
ENDBRANCH  37  39
ENDBRANCH  34  37
ENDBRANCH  33  34
ENDBRANCH  31  33
ENDBRANCH  26  31
ENDBRANCH  24  26
ENDBRANCH  19  22
ENDBRANCH  15  16
ENDBRANCH  11  14
ENDBRANCH   7   8
ENDBRANCH   2   7
TORSDOF 14
ENDMDL
MODEL 3
REMARK VINA RESULT:      -6.2      2.679      4.227
REMARK  14 active torsions:
REMARK  status: ('A' for Active; 'I' for Inactive)
REMARK    1  A    between atoms: O_2  and  C_18 
REMARK    2  A    between atoms: C_5  and  C_8 
REMARK    3  A    between atoms: C_5  and  O_35 
REMARK    4  A    between atoms: C_5  and  C_36 
REMARK    5  A    between atoms: N_6  and  C_11 
REMARK    6  A    between atoms: N_7  and  C_15 
REMARK       I    between atoms: N_7  and  C_24 
REMARK    7  A    between atoms: C_8  and  C_23 
REMARK    8  A    between atoms: C_11  and  C_14 
REMARK    9  A    between atoms: C_15  and  C_18 
REMARK   10  A    between atoms: C_15  and  C_23 
REMARK   11  A    between atoms: C_21  and  C_26 
REMARK   12  A    between atoms: C_24  and  C_25 
REMARK   13  A    between atoms: C_29  and  C_32 
REMARK   14  A    between atoms: C_36  and  O_39 
ROOT
HETATM    1  O   UNL     1      17.395   4.756  93.704  1.00  0.00    -0.350 OA
HETATM    2  N   UNL     1      15.350   2.779  93.828  1.00  0.00     0.147 N 
HETATM    3  C   UNL     1      16.729   2.436  93.452  1.00  0.00     0.283 C 
HETATM    4  C   UNL     1      15.056   4.167  93.446  1.00  0.00     0.283 C 
HETATM    5  C   UNL     1      17.701   3.418  94.100  1.00  0.00     0.178 C 
HETATM    6  C   UNL     1      16.067   5.108  94.093  1.00  0.00     0.178 C 
ENDROOT
BRANCH   2   7
HETATM    7  C   UNL     1      14.400   1.857  93.209  1.00  0.00     0.277 C 
BRANCH   7   8
HETATM    8  C   UNL     1      13.309   2.568  92.483  1.00  0.00     0.011 A 
HETATM    9  C   UNL     1      11.987   2.435  92.910  1.00  0.00    -0.002 A 
HETATM   10  C   UNL     1      10.965   3.098  92.230  1.00  0.00     0.008 A 
HETATM   11  C   UNL     1      11.266   3.895  91.127  1.00  0.00     0.042 A 
HETATM   12  C   UNL     1      12.585   4.029  90.700  1.00  0.00     0.008 A 
HETATM   13  C   UNL     1      13.607   3.366  91.379  1.00  0.00    -0.002 A 
BRANCH  11  14
HETATM   14  C   UNL     1      10.217   4.577  90.431  1.00  0.00    -0.059 C 
HETATM   15  C   UNL     1       9.336   5.149  89.847  1.00  0.00    -0.059 C 
BRANCH  15  16
HETATM   16  C   UNL     1       8.288   5.831  89.153  1.00  0.00     0.042 A 
HETATM   17  C   UNL     1       8.482   6.249  87.837  1.00  0.00     0.008 A 
HETATM   18  C   UNL     1       7.459   6.912  87.159  1.00  0.00     0.005 A 
HETATM   19  C   UNL     1       6.266   7.141  87.812  1.00  0.00     0.056 A 
HETATM   20  C   UNL     1       6.050   6.738  89.113  1.00  0.00     0.005 A 
HETATM   21  C   UNL     1       7.072   6.075  89.792  1.00  0.00     0.008 A 
BRANCH  19  22
HETATM   22  C   UNL     1       5.177   7.848  87.090  1.00  0.00     0.254 C 
HETATM   23  O   UNL     1       5.282   8.035  85.880  1.00  0.00    -0.268 OA
HETATM   24  N   UNL     1       4.086   8.231  87.858  1.00  0.00    -0.335 N 
HETATM   25  HN  UNL     1       4.058   8.021  88.849  1.00  0.00     0.164 HD
BRANCH  24  26
HETATM   26  C   UNL     1       2.941   8.904  87.299  1.00  0.00     0.169 C 
BRANCH  26  27
HETATM   27  C   UNL     1       1.626   8.163  87.572  1.00  0.00     0.138 C 
HETATM   28  C   UNL     1       1.733   6.666  87.302  1.00  0.00     0.034 C 
BRANCH  27  29
HETATM   29  O   UNL     1       1.238   8.363  88.931  1.00  0.00    -0.383 OA
HETATM   30  H   UNL     1       0.563   7.701  89.155  1.00  0.00     0.210 HD
ENDBRANCH  27  29
ENDBRANCH  26  27
BRANCH  26  31
HETATM   31  C   UNL     1       2.909  10.319  87.868  1.00  0.00     0.194 C 
HETATM   32  O   UNL     1       1.948  11.074  87.731  1.00  0.00    -0.289 OA
BRANCH  31  33
HETATM   33  C   UNL     1       4.080  10.649  88.506  1.00  0.00     0.053 C 
BRANCH  33  34
HETATM   34  C   UNL     1       4.087  11.885  89.168  1.00  0.00     0.220 C 
BRANCH  34  35
HETATM   35  O   UNL     1       4.734  11.747  90.223  1.00  0.00    -0.371 OA
HETATM   36  H   UNL     1       4.432  12.524  90.667  1.00  0.00     0.211 HD
ENDBRANCH  34  35
BRANCH  34  37
HETATM   37  C   UNL     1       4.572  12.941  88.378  1.00  0.00     0.185 C 
HETATM   38  O   UNL     1       4.637  13.569  89.542  1.00  0.00    -0.647 OA
BRANCH  37  39
HETATM   39  O   UNL     1       4.768  13.146  87.218  1.00  0.00    -0.774 OA
HETATM   40  H   UNL     1       4.526  14.218  86.936  1.00  0.00     0.167 HD
ENDBRANCH  37  39
ENDBRANCH  34  37
ENDBRANCH  33  34
ENDBRANCH  31  33
ENDBRANCH  26  31
ENDBRANCH  24  26
ENDBRANCH  19  22
ENDBRANCH  15  16
ENDBRANCH  11  14
ENDBRANCH   7   8
ENDBRANCH   2   7
TORSDOF 14
ENDMDL
