MODEL 1
REMARK VINA RESULT:      -6.1      0.000      0.000
REMARK  12 active torsions:
REMARK  status: ('A' for Active; 'I' for Inactive)
REMARK    1  A    between atoms: O_2  and  C_16 
REMARK    2  A    between atoms: N_5  and  C_9 
REMARK    3  A    between atoms: N_6  and  C_13 
REMARK       I    between atoms: N_6  and  C_22 
REMARK    4  A    between atoms: C_9  and  C_12 
REMARK    5  A    between atoms: C_13  and  C_16 
REMARK    6  A    between atoms: C_13  and  C_21 
REMARK    7  A    between atoms: C_19  and  C_24 
REMARK    8  A    between atoms: C_21  and  C_33 
REMARK    9  A    between atoms: C_22  and  C_23 
REMARK   10  A    between atoms: C_27  and  C_30 
REMARK   11  A    between atoms: C_33  and  C_34 
REMARK   12  A    between atoms: C_34  and  C_35 
ROOT
HETATM    1  O   UNL     1      16.148   4.347  93.772  1.00  0.00    -0.350 OA
HETATM    2  N   UNL     1      14.232   2.617  92.573  1.00  0.00     0.147 N 
HETATM    3  C   UNL     1      14.300   4.044  92.228  1.00  0.00     0.283 C 
HETATM    4  C   UNL     1      14.699   2.409  93.950  1.00  0.00     0.283 C 
HETATM    5  C   UNL     1      15.726   4.555  92.423  1.00  0.00     0.178 C 
HETATM    6  C   UNL     1      16.114   2.959  94.106  1.00  0.00     0.178 C 
ENDROOT
BRANCH   2   7
HETATM    7  C   UNL     1      12.872   2.109  92.403  1.00  0.00     0.277 C 
BRANCH   7   8
HETATM    8  C   UNL     1      11.856   3.200  92.384  1.00  0.00     0.011 A 
HETATM    9  C   UNL     1      11.061   3.392  91.253  1.00  0.00    -0.002 A 
HETATM   10  C   UNL     1      10.112   4.413  91.234  1.00  0.00     0.008 A 
HETATM   11  C   UNL     1       9.956   5.240  92.345  1.00  0.00     0.042 A 
HETATM   12  C   UNL     1      10.749   5.049  93.475  1.00  0.00     0.008 A 
HETATM   13  C   UNL     1      11.699   4.029  93.495  1.00  0.00    -0.002 A 
BRANCH  11  14
HETATM   14  C   UNL     1       8.980   6.287  92.326  1.00  0.00    -0.059 C 
HETATM   15  C   UNL     1       8.161   7.166  92.308  1.00  0.00    -0.059 C 
BRANCH  15  16
HETATM   16  C   UNL     1       7.185   8.212  92.288  1.00  0.00     0.042 A 
HETATM   17  C   UNL     1       5.856   7.930  92.606  1.00  0.00     0.008 A 
HETATM   18  C   UNL     1       4.906   8.951  92.589  1.00  0.00     0.005 A 
HETATM   19  C   UNL     1       5.305  10.228  92.256  1.00  0.00     0.056 A 
HETATM   20  C   UNL     1       6.612  10.532  91.937  1.00  0.00     0.005 A 
HETATM   21  C   UNL     1       7.563   9.512  91.954  1.00  0.00     0.008 A 
BRANCH  19  22
HETATM   22  C   UNL     1       4.291  11.314  92.236  1.00  0.00     0.254 C 
HETATM   23  O   UNL     1       3.220  11.146  92.813  1.00  0.00    -0.268 OA
HETATM   24  N   UNL     1       4.656  12.475  91.567  1.00  0.00    -0.335 N 
HETATM   25  HN  UNL     1       5.569  12.551  91.135  1.00  0.00     0.164 HD
BRANCH  24  26
HETATM   26  C   UNL     1       3.792  13.625  91.481  1.00  0.00     0.166 C 
BRANCH  26  27
HETATM   27  C   UNL     1       3.894  14.537  92.710  1.00  0.00     0.138 C 
HETATM   28  C   UNL     1       2.528  14.914  93.272  1.00  0.00     0.034 C 
BRANCH  27  29
HETATM   29  O   UNL     1       4.649  13.883  93.729  1.00  0.00    -0.383 OA
HETATM   30  H   UNL     1       5.185  14.551  94.188  1.00  0.00     0.210 HD
ENDBRANCH  27  29
ENDBRANCH  26  27
BRANCH  26  31
HETATM   31  C   UNL     1       4.144  14.376  90.202  1.00  0.00     0.181 C 
HETATM   32  O   UNL     1       4.367  15.585  90.175  1.00  0.00    -0.294 OA
BRANCH  31  33
HETATM   33  C   UNL     1       5.369  13.673  89.407  1.00  0.00     0.138 C 
BRANCH  33  34
HETATM   34  C   UNL     1       4.702  13.160  88.273  1.00  0.00     0.208 C 
HETATM   35  O   UNL     1       5.112  13.535  87.199  1.00  0.00    -0.289 OA
BRANCH  34  36
HETATM   36  C   UNL     1       3.855  12.093  88.149  1.00  0.00     0.194 C 
HETATM   37  O   UNL     1       4.079  10.817  87.622  1.00  0.00    -0.185 OA
ENDBRANCH  34  36
ENDBRANCH  33  34
ENDBRANCH  31  33
ENDBRANCH  26  31
ENDBRANCH  24  26
ENDBRANCH  19  22
ENDBRANCH  15  16
ENDBRANCH  11  14
ENDBRANCH   7   8
ENDBRANCH   2   7
TORSDOF 12
ENDMDL
