MODEL 1
REMARK VINA RESULT:      -7.5      0.000      0.000
REMARK  9 active torsions:
REMARK  status: ('A' for Active; 'I' for Inactive)
REMARK    1  A    between atoms: N_3  and  C_6 
REMARK    2  A    between atoms: C_6  and  C_9 
REMARK    3  A    between atoms: C_14  and  C_17 
REMARK       I    between atoms: N_26  and  C_15 
REMARK    4  A    between atoms: C_15  and  C_16 
REMARK    5  A    between atoms: C_20  and  C_23 
REMARK    6  A    between atoms: OG1_24  and  CB_28 
REMARK    7  A    between atoms: N_26  and  CA_27 
REMARK    8  A    between atoms: CA_27  and  CB_28 
REMARK    9  A    between atoms: CA_27  and  C_30 
ROOT
HETATM    1  O   UNK A   0       1.928   8.099  87.865  1.00  0.00    -0.388 OA
HETATM    2  N   UNK A   0       4.715   7.542  87.707  1.00  0.00     0.096 N 
HETATM    3  C   UNK A   0       4.211   8.920  87.782  1.00  0.00     0.299 C 
HETATM    4  C   UNK A   0       3.720   6.676  87.059  1.00  0.00     0.299 C 
HETATM    5  C   UNK A   0       2.876   8.942  88.523  1.00  0.00     0.198 C 
HETATM    6  C   UNK A   0       2.398   6.751  87.816  1.00  0.00     0.198 C 
ENDROOT
BRANCH   2   7
HETATM    7  C   UNK A   0       5.989   7.495  86.992  1.00  0.00     0.311 C 
BRANCH   7   8
HETATM    8  C   UNK A   0       7.082   6.903  87.815  1.00  0.00    -0.030 A 
HETATM    9  C   UNK A   0       6.865   6.629  89.166  1.00  0.00     0.010 A 
HETATM   10  C   UNK A   0       7.888   6.077  89.938  1.00  0.00     0.021 A 
HETATM   11  C   UNK A   0       9.124   5.797  89.358  1.00  0.00     0.018 A 
HETATM   12  C   UNK A   0       9.341   6.070  88.009  1.00  0.00     0.021 A 
HETATM   13  C   UNK A   0       8.320   6.623  87.237  1.00  0.00     0.010 A 
BRANCH  11  14
HETATM   14  C   UNK A   0      10.172   5.229  90.149  1.00  0.00    -0.061 C 
HETATM   15  C   UNK A   0      11.053   4.752  90.814  1.00  0.00    -0.061 C 
BRANCH  15  16
HETATM   16  C   UNK A   0      12.100   4.185  91.606  1.00  0.00     0.018 A 
HETATM   17  C   UNK A   0      13.369   4.004  91.056  1.00  0.00     0.022 A 
HETATM   18  C   UNK A   0      14.391   3.453  91.829  1.00  0.00     0.018 A 
HETATM   19  C   UNK A   0      14.121   3.096  93.134  1.00  0.00     0.032 A 
HETATM   20  C   UNK A   0      12.875   3.264  93.700  1.00  0.00     0.018 A 
HETATM   21  C   UNK A   0      11.852   3.815  92.928  1.00  0.00     0.022 A 
BRANCH  19  22
HETATM   22  C   UNK A   0      15.209   2.507  93.957  1.00  0.00     0.252 C 
HETATM   23  O   UNK A   0      16.378   2.746  93.664  1.00  0.00    -0.268 OA
ENDBRANCH  19  22
ENDBRANCH  15  16
ENDBRANCH  11  14
ENDBRANCH   7   8
ENDBRANCH   2   7
TORSDOF 9
ENDMDL
