MODEL 1
REMARK VINA RESULT:      -6.6      0.000      0.000
REMARK  14 active torsions:
REMARK  status: ('A' for Active; 'I' for Inactive)
REMARK    1  A    between atoms: O_2  and  C_18 
REMARK    2  A    between atoms: C_5  and  C_8 
REMARK    3  A    between atoms: C_5  and  O_35 
REMARK    4  A    between atoms: C_5  and  C_36 
REMARK    5  A    between atoms: N_6  and  C_11 
REMARK    6  A    between atoms: N_7  and  C_15 
REMARK       I    between atoms: N_7  and  C_24 
REMARK    7  A    between atoms: C_8  and  C_23 
REMARK    8  A    between atoms: C_11  and  C_14 
REMARK    9  A    between atoms: C_15  and  C_18 
REMARK   10  A    between atoms: C_15  and  C_23 
REMARK   11  A    between atoms: C_21  and  C_26 
REMARK   12  A    between atoms: C_24  and  C_25 
REMARK   13  A    between atoms: C_29  and  C_32 
REMARK   14  A    between atoms: C_36  and  O_39 
ROOT
HETATM    1  O   UNL     1      16.730   3.727  93.739  1.00  0.00    -0.350 OA
HETATM    2  N   UNL     1      14.124   2.964  92.888  1.00  0.00     0.147 N 
HETATM    3  C   UNL     1      15.193   1.972  93.069  1.00  0.00     0.283 C 
HETATM    4  C   UNL     1      14.701   4.266  92.525  1.00  0.00     0.283 C 
HETATM    5  C   UNL     1      16.181   2.465  94.124  1.00  0.00     0.178 C 
HETATM    6  C   UNL     1      15.700   4.704  93.591  1.00  0.00     0.178 C 
ENDROOT
BRANCH   2   7
HETATM    7  C   UNL     1      13.171   2.517  91.873  1.00  0.00     0.277 C 
BRANCH   7   8
HETATM    8  C   UNL     1      12.041   3.473  91.695  1.00  0.00     0.011 A 
HETATM    9  C   UNL     1      11.356   3.958  92.810  1.00  0.00    -0.002 A 
HETATM   10  C   UNL     1      10.298   4.850  92.645  1.00  0.00     0.008 A 
HETATM   11  C   UNL     1       9.926   5.260  91.365  1.00  0.00     0.042 A 
HETATM   12  C   UNL     1      10.609   4.776  90.250  1.00  0.00     0.008 A 
HETATM   13  C   UNL     1      11.667   3.883  90.415  1.00  0.00    -0.002 A 
BRANCH  11  14
HETATM   14  C   UNL     1       8.841   6.177  91.195  1.00  0.00    -0.059 C 
HETATM   15  C   UNL     1       7.930   6.949  91.054  1.00  0.00    -0.059 C 
BRANCH  15  16
HETATM   16  C   UNL     1       6.846   7.866  90.884  1.00  0.00     0.042 A 
HETATM   17  C   UNL     1       6.448   8.676  91.948  1.00  0.00     0.008 A 
HETATM   18  C   UNL     1       5.392   9.574  91.782  1.00  0.00     0.005 A 
HETATM   19  C   UNL     1       4.761   9.641  90.558  1.00  0.00     0.056 A 
HETATM   20  C   UNL     1       5.136   8.850  89.491  1.00  0.00     0.005 A 
HETATM   21  C   UNL     1       6.191   7.953  89.656  1.00  0.00     0.008 A 
BRANCH  19  22
HETATM   22  C   UNL     1       3.636  10.595  90.382  1.00  0.00     0.254 C 
HETATM   23  O   UNL     1       2.918  10.500  89.389  1.00  0.00    -0.268 OA
HETATM   24  N   UNL     1       3.467  11.529  91.394  1.00  0.00    -0.335 N 
HETATM   25  HN  UNL     1       4.084  11.532  92.198  1.00  0.00     0.164 HD
BRANCH  24  26
HETATM   26  C   UNL     1       2.407  12.505  91.380  1.00  0.00     0.169 C 
BRANCH  26  27
HETATM   27  C   UNL     1       1.632  12.558  92.703  1.00  0.00     0.138 C 
HETATM   28  C   UNL     1       1.283  11.172  93.231  1.00  0.00     0.034 C 
BRANCH  27  29
HETATM   29  O   UNL     1       2.407  13.247  93.684  1.00  0.00    -0.383 OA
HETATM   30  H   UNL     1       2.158  14.186  93.664  1.00  0.00     0.210 HD
ENDBRANCH  27  29
ENDBRANCH  26  27
BRANCH  26  31
HETATM   31  C   UNL     1       3.025  13.859  91.045  1.00  0.00     0.194 C 
HETATM   32  O   UNL     1       2.446  14.926  91.241  1.00  0.00    -0.289 OA
BRANCH  31  33
HETATM   33  C   UNL     1       4.267  13.735  90.472  1.00  0.00     0.053 C 
BRANCH  33  34
HETATM   34  C   UNL     1       4.392  14.242  89.171  1.00  0.00     0.220 C 
BRANCH  34  35
HETATM   35  O   UNL     1       5.211  15.179  89.205  1.00  0.00    -0.371 OA
HETATM   36  H   UNL     1       4.595  15.892  89.281  1.00  0.00     0.211 HD
ENDBRANCH  34  35
BRANCH  34  37
HETATM   37  C   UNL     1       4.738  13.265  88.220  1.00  0.00     0.185 C 
HETATM   38  O   UNL     1       5.972  13.597  88.565  1.00  0.00    -0.647 OA
BRANCH  37  39
HETATM   39  O   UNL     1       4.164  12.546  87.459  1.00  0.00    -0.774 OA
HETATM   40  H   UNL     1       4.235  11.459  87.777  1.00  0.00     0.167 HD
ENDBRANCH  37  39
ENDBRANCH  34  37
ENDBRANCH  33  34
ENDBRANCH  31  33
ENDBRANCH  26  31
ENDBRANCH  24  26
ENDBRANCH  19  22
ENDBRANCH  15  16
ENDBRANCH  11  14
ENDBRANCH   7   8
ENDBRANCH   2   7
TORSDOF 14
ENDMDL
