MODEL 1
REMARK VINA RESULT:      -7.5      0.000      0.000
REMARK  9 active torsions:
REMARK  status: ('A' for Active; 'I' for Inactive)
REMARK    1  A    between atoms: N_3  and  C_6 
REMARK    2  A    between atoms: C_6  and  C_9 
REMARK    3  A    between atoms: C_14  and  C_17 
REMARK       I    between atoms: N_26  and  C_15 
REMARK    4  A    between atoms: C_15  and  C_16 
REMARK    5  A    between atoms: C_20  and  C_23 
REMARK    6  A    between atoms: OG1_24  and  CB_28 
REMARK    7  A    between atoms: N_26  and  CA_27 
REMARK    8  A    between atoms: CA_27  and  CB_28 
REMARK    9  A    between atoms: CA_27  and  C_30 
ROOT
HETATM    1  O   UNK A   0       1.862   8.232  87.964  1.00  0.00    -0.388 OA
HETATM    2  N   UNK A   0       4.621   7.579  87.719  1.00  0.00     0.096 N 
HETATM    3  C   UNK A   0       4.166   8.974  87.788  1.00  0.00     0.299 C 
HETATM    4  C   UNK A   0       3.576   6.737  87.121  1.00  0.00     0.299 C 
HETATM    5  C   UNK A   0       2.859   9.053  88.574  1.00  0.00     0.198 C 
HETATM    6  C   UNK A   0       2.284   6.868  87.921  1.00  0.00     0.198 C 
ENDROOT
BRANCH   2   7
HETATM    7  C   UNK A   0       5.867   7.478  86.961  1.00  0.00     0.311 C 
BRANCH   7   8
HETATM    8  C   UNK A   0       6.977   6.895  87.768  1.00  0.00    -0.030 A 
HETATM    9  C   UNK A   0       6.766   6.564  89.107  1.00  0.00     0.010 A 
HETATM   10  C   UNK A   0       7.804   6.021  89.863  1.00  0.00     0.021 A 
HETATM   11  C   UNK A   0       9.053   5.807  89.279  1.00  0.00     0.018 A 
HETATM   12  C   UNK A   0       9.265   6.137  87.942  1.00  0.00     0.021 A 
HETATM   13  C   UNK A   0       8.227   6.681  87.186  1.00  0.00     0.010 A 
BRANCH  11  14
HETATM   14  C   UNK A   0      10.117   5.248  90.054  1.00  0.00    -0.061 C 
HETATM   15  C   UNK A   0      11.012   4.778  90.706  1.00  0.00    -0.061 C 
BRANCH  15  16
HETATM   16  C   UNK A   0      12.075   4.219  91.482  1.00  0.00     0.018 A 
HETATM   17  C   UNK A   0      11.879   3.941  92.835  1.00  0.00     0.022 A 
HETATM   18  C   UNK A   0      12.915   3.393  93.590  1.00  0.00     0.018 A 
HETATM   19  C   UNK A   0      14.123   3.135  92.977  1.00  0.00     0.032 A 
HETATM   20  C   UNK A   0      14.342   3.402  91.641  1.00  0.00     0.018 A 
HETATM   21  C   UNK A   0      13.307   3.950  90.885  1.00  0.00     0.022 A 
BRANCH  19  22
HETATM   22  C   UNK A   0      15.228   2.553  93.782  1.00  0.00     0.252 C 
HETATM   23  O   UNK A   0      16.361   3.012  93.666  1.00  0.00    -0.268 OA
ENDBRANCH  19  22
ENDBRANCH  15  16
ENDBRANCH  11  14
ENDBRANCH   7   8
ENDBRANCH   2   7
TORSDOF 9
ENDMDL
