MODEL 1
REMARK VINA RESULT:      -7.5      0.000      0.000
REMARK  9 active torsions:
REMARK  status: ('A' for Active; 'I' for Inactive)
REMARK    1  A    between atoms: N_3  and  C_6 
REMARK    2  A    between atoms: C_6  and  C_9 
REMARK    3  A    between atoms: C_14  and  C_17 
REMARK       I    between atoms: N_26  and  C_15 
REMARK    4  A    between atoms: C_15  and  C_16 
REMARK    5  A    between atoms: C_20  and  C_23 
REMARK    6  A    between atoms: OG1_24  and  CB_28 
REMARK    7  A    between atoms: N_26  and  CA_27 
REMARK    8  A    between atoms: CA_27  and  CB_28 
REMARK    9  A    between atoms: CA_27  and  C_30 
ROOT
HETATM    1  O   UNK A   0       1.964   8.078  87.849  1.00  0.00    -0.388 OA
HETATM    2  N   UNK A   0       4.758   7.557  87.693  1.00  0.00     0.096 N 
HETATM    3  C   UNK A   0       4.237   8.928  87.783  1.00  0.00     0.299 C 
HETATM    4  C   UNK A   0       3.776   6.688  87.031  1.00  0.00     0.299 C 
HETATM    5  C   UNK A   0       2.900   8.925  88.520  1.00  0.00     0.198 C 
HETATM    6  C   UNK A   0       2.450   6.737  87.784  1.00  0.00     0.198 C 
ENDROOT
BRANCH   2   7
HETATM    7  C   UNK A   0       6.035   7.535  86.981  1.00  0.00     0.311 C 
BRANCH   7   8
HETATM    8  C   UNK A   0       7.130   6.937  87.797  1.00  0.00    -0.030 A 
HETATM    9  C   UNK A   0       6.934   6.697  89.157  1.00  0.00     0.010 A 
HETATM   10  C   UNK A   0       7.958   6.140  89.922  1.00  0.00     0.021 A 
HETATM   11  C   UNK A   0       9.178   5.821  89.325  1.00  0.00     0.018 A 
HETATM   12  C   UNK A   0       9.375   6.060  87.967  1.00  0.00     0.021 A 
HETATM   13  C   UNK A   0       8.351   6.618  87.202  1.00  0.00     0.010 A 
BRANCH  11  14
HETATM   14  C   UNK A   0      10.228   5.248  90.110  1.00  0.00    -0.061 C 
HETATM   15  C   UNK A   0      11.111   4.766  90.768  1.00  0.00    -0.061 C 
BRANCH  15  16
HETATM   16  C   UNK A   0      12.161   4.194  91.553  1.00  0.00     0.018 A 
HETATM   17  C   UNK A   0      11.926   3.849  92.884  1.00  0.00     0.022 A 
HETATM   18  C   UNK A   0      12.950   3.288  93.648  1.00  0.00     0.018 A 
HETATM   19  C   UNK A   0      14.182   3.084  93.064  1.00  0.00     0.032 A 
HETATM   20  C   UNK A   0      14.439   3.416  91.751  1.00  0.00     0.018 A 
HETATM   21  C   UNK A   0      13.416   3.977  90.986  1.00  0.00     0.022 A 
BRANCH  19  22
HETATM   22  C   UNK A   0      15.273   2.488  93.879  1.00  0.00     0.252 C 
HETATM   23  O   UNK A   0      16.425   2.883  93.720  1.00  0.00    -0.268 OA
ENDBRANCH  19  22
ENDBRANCH  15  16
ENDBRANCH  11  14
ENDBRANCH   7   8
ENDBRANCH   2   7
TORSDOF 9
ENDMDL
MODEL 2
REMARK VINA RESULT:      -7.5      0.093      1.012
REMARK  9 active torsions:
REMARK  status: ('A' for Active; 'I' for Inactive)
REMARK    1  A    between atoms: N_3  and  C_6 
REMARK    2  A    between atoms: C_6  and  C_9 
REMARK    3  A    between atoms: C_14  and  C_17 
REMARK       I    between atoms: N_26  and  C_15 
REMARK    4  A    between atoms: C_15  and  C_16 
REMARK    5  A    between atoms: C_20  and  C_23 
REMARK    6  A    between atoms: OG1_24  and  CB_28 
REMARK    7  A    between atoms: N_26  and  CA_27 
REMARK    8  A    between atoms: CA_27  and  CB_28 
REMARK    9  A    between atoms: CA_27  and  C_30 
ROOT
HETATM    1  O   UNK A   0       1.879   8.080  87.875  1.00  0.00    -0.388 OA
HETATM    2  N   UNK A   0       4.666   7.526  87.700  1.00  0.00     0.096 N 
HETATM    3  C   UNK A   0       4.163   8.899  87.848  1.00  0.00     0.299 C 
HETATM    4  C   UNK A   0       3.672   6.699  87.002  1.00  0.00     0.299 C 
HETATM    5  C   UNK A   0       2.825   8.884  88.582  1.00  0.00     0.198 C 
HETATM    6  C   UNK A   0       2.346   6.736  87.755  1.00  0.00     0.198 C 
ENDROOT
BRANCH   2   7
HETATM    7  C   UNK A   0       5.943   7.515  86.990  1.00  0.00     0.311 C 
BRANCH   7   8
HETATM    8  C   UNK A   0       7.040   6.917  87.802  1.00  0.00    -0.030 A 
HETATM    9  C   UNK A   0       8.267   6.623  87.207  1.00  0.00     0.010 A 
HETATM   10  C   UNK A   0       9.294   6.061  87.965  1.00  0.00     0.021 A 
HETATM   11  C   UNK A   0       9.094   5.796  89.320  1.00  0.00     0.018 A 
HETATM   12  C   UNK A   0       7.869   6.089  89.915  1.00  0.00     0.021 A 
HETATM   13  C   UNK A   0       6.841   6.650  89.157  1.00  0.00     0.010 A 
BRANCH  11  14
HETATM   14  C   UNK A   0      10.148   5.221  90.098  1.00  0.00    -0.061 C 
HETATM   15  C   UNK A   0      11.033   4.738  90.752  1.00  0.00    -0.061 C 
BRANCH  15  16
HETATM   16  C   UNK A   0      12.087   4.164  91.530  1.00  0.00     0.018 A 
HETATM   17  C   UNK A   0      11.850   3.783  92.851  1.00  0.00     0.022 A 
HETATM   18  C   UNK A   0      12.877   3.221  93.608  1.00  0.00     0.018 A 
HETATM   19  C   UNK A   0      14.117   3.052  93.028  1.00  0.00     0.032 A 
HETATM   20  C   UNK A   0      14.377   3.421  91.725  1.00  0.00     0.018 A 
HETATM   21  C   UNK A   0      13.350   3.983  90.966  1.00  0.00     0.022 A 
BRANCH  19  22
HETATM   22  C   UNK A   0      15.212   2.455  93.836  1.00  0.00     0.252 C 
HETATM   23  O   UNK A   0      16.341   2.934  93.764  1.00  0.00    -0.268 OA
ENDBRANCH  19  22
ENDBRANCH  15  16
ENDBRANCH  11  14
ENDBRANCH   7   8
ENDBRANCH   2   7
TORSDOF 9
ENDMDL
MODEL 3
REMARK VINA RESULT:      -7.5      0.173      1.434
REMARK  9 active torsions:
REMARK  status: ('A' for Active; 'I' for Inactive)
REMARK    1  A    between atoms: N_3  and  C_6 
REMARK    2  A    between atoms: C_6  and  C_9 
REMARK    3  A    between atoms: C_14  and  C_17 
REMARK       I    between atoms: N_26  and  C_15 
REMARK    4  A    between atoms: C_15  and  C_16 
REMARK    5  A    between atoms: C_20  and  C_23 
REMARK    6  A    between atoms: OG1_24  and  CB_28 
REMARK    7  A    between atoms: N_26  and  CA_27 
REMARK    8  A    between atoms: CA_27  and  CB_28 
REMARK    9  A    between atoms: CA_27  and  C_30 
ROOT
HETATM    1  O   UNK A   0       1.790   8.082  87.919  1.00  0.00    -0.388 OA
HETATM    2  N   UNK A   0       4.579   7.543  87.735  1.00  0.00     0.096 N 
HETATM    3  C   UNK A   0       4.069   8.916  87.861  1.00  0.00     0.299 C 
HETATM    4  C   UNK A   0       3.586   6.697  87.058  1.00  0.00     0.299 C 
HETATM    5  C   UNK A   0       2.736   8.905  88.605  1.00  0.00     0.198 C 
HETATM    6  C   UNK A   0       2.265   6.739  87.819  1.00  0.00     0.198 C 
ENDROOT
BRANCH   2   7
HETATM    7  C   UNK A   0       5.852   7.528  87.016  1.00  0.00     0.311 C 
BRANCH   7   8
HETATM    8  C   UNK A   0       6.953   6.930  87.823  1.00  0.00    -0.030 A 
HETATM    9  C   UNK A   0       8.194   6.685  87.234  1.00  0.00     0.010 A 
HETATM   10  C   UNK A   0       9.225   6.124  87.988  1.00  0.00     0.021 A 
HETATM   11  C   UNK A   0       9.014   5.809  89.330  1.00  0.00     0.018 A 
HETATM   12  C   UNK A   0       7.775   6.053  89.919  1.00  0.00     0.021 A 
HETATM   13  C   UNK A   0       6.744   6.614  89.165  1.00  0.00     0.010 A 
BRANCH  11  14
HETATM   14  C   UNK A   0      10.072   5.234  90.103  1.00  0.00    -0.061 C 
HETATM   15  C   UNK A   0      10.961   4.752  90.753  1.00  0.00    -0.061 C 
BRANCH  15  16
HETATM   16  C   UNK A   0      12.018   4.179  91.527  1.00  0.00     0.018 A 
HETATM   17  C   UNK A   0      13.282   4.008  90.961  1.00  0.00     0.022 A 
HETATM   18  C   UNK A   0      14.313   3.451  91.716  1.00  0.00     0.018 A 
HETATM   19  C   UNK A   0      14.059   3.079  93.020  1.00  0.00     0.032 A 
HETATM   20  C   UNK A   0      12.819   3.237  93.602  1.00  0.00     0.018 A 
HETATM   21  C   UNK A   0      11.786   3.794  92.847  1.00  0.00     0.022 A 
BRANCH  19  22
HETATM   22  C   UNK A   0      15.158   2.484  93.824  1.00  0.00     0.252 C 
HETATM   23  O   UNK A   0      16.322   2.759  93.545  1.00  0.00    -0.268 OA
ENDBRANCH  19  22
ENDBRANCH  15  16
ENDBRANCH  11  14
ENDBRANCH   7   8
ENDBRANCH   2   7
TORSDOF 9
ENDMDL
MODEL 4
REMARK VINA RESULT:      -6.9      1.512      1.906
REMARK  9 active torsions:
REMARK  status: ('A' for Active; 'I' for Inactive)
REMARK    1  A    between atoms: N_3  and  C_6 
REMARK    2  A    between atoms: C_6  and  C_9 
REMARK    3  A    between atoms: C_14  and  C_17 
REMARK       I    between atoms: N_26  and  C_15 
REMARK    4  A    between atoms: C_15  and  C_16 
REMARK    5  A    between atoms: C_20  and  C_23 
REMARK    6  A    between atoms: OG1_24  and  CB_28 
REMARK    7  A    between atoms: N_26  and  CA_27 
REMARK    8  A    between atoms: CA_27  and  CB_28 
REMARK    9  A    between atoms: CA_27  and  C_30 
ROOT
HETATM    1  O   UNK A   0       2.923  11.268  89.661  1.00  0.00    -0.388 OA
HETATM    2  N   UNK A   0       4.709   9.257  88.729  1.00  0.00     0.096 N 
HETATM    3  C   UNK A   0       3.920  10.074  87.798  1.00  0.00     0.299 C 
HETATM    4  C   UNK A   0       3.997   9.120  90.007  1.00  0.00     0.299 C 
HETATM    5  C   UNK A   0       3.623  11.433  88.426  1.00  0.00     0.198 C 
HETATM    6  C   UNK A   0       3.697  10.500  90.583  1.00  0.00     0.198 C 
ENDROOT
BRANCH   2   7
HETATM    7  C   UNK A   0       4.997   7.945  88.152  1.00  0.00     0.311 C 
BRANCH   7   8
HETATM    8  C   UNK A   0       6.207   7.314  88.750  1.00  0.00    -0.030 A 
HETATM    9  C   UNK A   0       6.088   6.128  89.475  1.00  0.00     0.010 A 
HETATM   10  C   UNK A   0       7.220   5.537  90.037  1.00  0.00     0.021 A 
HETATM   11  C   UNK A   0       8.470   6.132  89.872  1.00  0.00     0.018 A 
HETATM   12  C   UNK A   0       8.591   7.317  89.148  1.00  0.00     0.021 A 
HETATM   13  C   UNK A   0       7.459   7.908  88.586  1.00  0.00     0.010 A 
BRANCH  11  14
HETATM   14  C   UNK A   0       9.631   5.525  90.447  1.00  0.00    -0.061 C 
HETATM   15  C   UNK A   0      10.608   5.016  90.930  1.00  0.00    -0.061 C 
BRANCH  15  16
HETATM   16  C   UNK A   0      11.768   4.410  91.505  1.00  0.00     0.018 A 
HETATM   17  C   UNK A   0      11.725   3.929  92.814  1.00  0.00     0.022 A 
HETATM   18  C   UNK A   0      12.857   3.335  93.374  1.00  0.00     0.018 A 
HETATM   19  C   UNK A   0      14.003   3.235  92.614  1.00  0.00     0.032 A 
HETATM   20  C   UNK A   0      14.070   3.703  91.318  1.00  0.00     0.018 A 
HETATM   21  C   UNK A   0      12.939   4.297  90.757  1.00  0.00     0.022 A 
BRANCH  19  22
HETATM   22  C   UNK A   0      15.208   2.604  93.212  1.00  0.00     0.252 C 
HETATM   23  O   UNK A   0      15.994   3.299  93.851  1.00  0.00    -0.268 OA
ENDBRANCH  19  22
ENDBRANCH  15  16
ENDBRANCH  11  14
ENDBRANCH   7   8
ENDBRANCH   2   7
TORSDOF 9
ENDMDL
MODEL 5
REMARK VINA RESULT:      -6.9      0.978      1.538
REMARK  9 active torsions:
REMARK  status: ('A' for Active; 'I' for Inactive)
REMARK    1  A    between atoms: N_3  and  C_6 
REMARK    2  A    between atoms: C_6  and  C_9 
REMARK    3  A    between atoms: C_14  and  C_17 
REMARK       I    between atoms: N_26  and  C_15 
REMARK    4  A    between atoms: C_15  and  C_16 
REMARK    5  A    between atoms: C_20  and  C_23 
REMARK    6  A    between atoms: OG1_24  and  CB_28 
REMARK    7  A    between atoms: N_26  and  CA_27 
REMARK    8  A    between atoms: CA_27  and  CB_28 
REMARK    9  A    between atoms: CA_27  and  C_30 
ROOT
HETATM    1  O   UNK A   0       2.321   9.899  89.259  1.00  0.00    -0.388 OA
HETATM    2  N   UNK A   0       4.505   8.143  88.758  1.00  0.00     0.096 N 
HETATM    3  C   UNK A   0       4.447   9.485  88.163  1.00  0.00     0.299 C 
HETATM    4  C   UNK A   0       3.145   7.634  88.985  1.00  0.00     0.299 C 
HETATM    5  C   UNK A   0       3.639  10.416  89.065  1.00  0.00     0.198 C 
HETATM    6  C   UNK A   0       2.368   8.607  89.866  1.00  0.00     0.198 C 
ENDROOT
BRANCH   2   7
HETATM    7  C   UNK A   0       5.266   7.231  87.905  1.00  0.00     0.311 C 
BRANCH   7   8
HETATM    8  C   UNK A   0       6.469   6.682  88.593  1.00  0.00    -0.030 A 
HETATM    9  C   UNK A   0       7.665   6.532  87.890  1.00  0.00     0.010 A 
HETATM   10  C   UNK A   0       8.791   6.015  88.532  1.00  0.00     0.021 A 
HETATM   11  C   UNK A   0       8.720   5.652  89.876  1.00  0.00     0.018 A 
HETATM   12  C   UNK A   0       7.527   5.801  90.579  1.00  0.00     0.021 A 
HETATM   13  C   UNK A   0       6.400   6.317  89.938  1.00  0.00     0.010 A 
BRANCH  11  14
HETATM   14  C   UNK A   0       9.876   5.124  90.535  1.00  0.00    -0.061 C 
HETATM   15  C   UNK A   0      10.847   4.681  91.089  1.00  0.00    -0.061 C 
BRANCH  15  16
HETATM   16  C   UNK A   0      12.001   4.154  91.747  1.00  0.00     0.018 A 
HETATM   17  C   UNK A   0      11.921   3.762  93.084  1.00  0.00     0.022 A 
HETATM   18  C   UNK A   0      13.047   3.245  93.726  1.00  0.00     0.018 A 
HETATM   19  C   UNK A   0      14.225   3.130  93.017  1.00  0.00     0.032 A 
HETATM   20  C   UNK A   0      14.328   3.511  91.695  1.00  0.00     0.018 A 
HETATM   21  C   UNK A   0      13.204   4.028  91.053  1.00  0.00     0.022 A 
BRANCH  19  22
HETATM   22  C   UNK A   0      15.424   2.581  93.702  1.00  0.00     0.252 C 
HETATM   23  O   UNK A   0      16.284   3.354  94.117  1.00  0.00    -0.268 OA
ENDBRANCH  19  22
ENDBRANCH  15  16
ENDBRANCH  11  14
ENDBRANCH   7   8
ENDBRANCH   2   7
TORSDOF 9
ENDMDL
MODEL 6
REMARK VINA RESULT:      -6.6      3.917     10.453
REMARK  9 active torsions:
REMARK  status: ('A' for Active; 'I' for Inactive)
REMARK    1  A    between atoms: N_3  and  C_6 
REMARK    2  A    between atoms: C_6  and  C_9 
REMARK    3  A    between atoms: C_14  and  C_17 
REMARK       I    between atoms: N_26  and  C_15 
REMARK    4  A    between atoms: C_15  and  C_16 
REMARK    5  A    between atoms: C_20  and  C_23 
REMARK    6  A    between atoms: OG1_24  and  CB_28 
REMARK    7  A    between atoms: N_26  and  CA_27 
REMARK    8  A    between atoms: CA_27  and  CB_28 
REMARK    9  A    between atoms: CA_27  and  C_30 
ROOT
HETATM    1  O   UNK A   0      14.679   3.345  92.162  1.00  0.00    -0.388 OA
HETATM    2  N   UNK A   0      11.960   4.161  92.373  1.00  0.00     0.096 N 
HETATM    3  C   UNK A   0      12.578   3.282  93.375  1.00  0.00     0.299 C 
HETATM    4  C   UNK A   0      12.605   3.967  91.067  1.00  0.00     0.299 C 
HETATM    5  C   UNK A   0      14.080   3.550  93.442  1.00  0.00     0.198 C 
HETATM    6  C   UNK A   0      14.105   4.217  91.188  1.00  0.00     0.198 C 
ENDROOT
BRANCH   2   7
HETATM    7  C   UNK A   0      10.522   3.915  92.284  1.00  0.00     0.311 C 
BRANCH   7   8
HETATM    8  C   UNK A   0       9.751   5.153  91.978  1.00  0.00    -0.030 A 
HETATM    9  C   UNK A   0      10.033   6.336  92.663  1.00  0.00     0.010 A 
HETATM   10  C   UNK A   0       9.311   7.495  92.379  1.00  0.00     0.021 A 
HETATM   11  C   UNK A   0       8.309   7.471  91.409  1.00  0.00     0.018 A 
HETATM   12  C   UNK A   0       8.027   6.291  90.725  1.00  0.00     0.021 A 
HETATM   13  C   UNK A   0       8.748   5.131  91.009  1.00  0.00     0.010 A 
BRANCH  11  14
HETATM   14  C   UNK A   0       7.570   8.661  91.117  1.00  0.00    -0.061 C 
HETATM   15  C   UNK A   0       6.949   9.661  90.870  1.00  0.00    -0.061 C 
BRANCH  15  16
HETATM   16  C   UNK A   0       6.211  10.849  90.577  1.00  0.00     0.018 A 
HETATM   17  C   UNK A   0       6.359  11.474  89.339  1.00  0.00     0.022 A 
HETATM   18  C   UNK A   0       5.637  12.632  89.052  1.00  0.00     0.018 A 
HETATM   19  C   UNK A   0       4.782  13.138  90.008  1.00  0.00     0.032 A 
HETATM   20  C   UNK A   0       4.617  12.540  91.240  1.00  0.00     0.018 A 
HETATM   21  C   UNK A   0       5.340  11.382  91.528  1.00  0.00     0.022 A 
BRANCH  19  22
HETATM   22  C   UNK A   0       4.013  14.373  89.703  1.00  0.00     0.252 C 
HETATM   23  O   UNK A   0       4.609  15.444  89.616  1.00  0.00    -0.268 OA
ENDBRANCH  19  22
ENDBRANCH  15  16
ENDBRANCH  11  14
ENDBRANCH   7   8
ENDBRANCH   2   7
TORSDOF 9
ENDMDL
MODEL 7
REMARK VINA RESULT:      -6.6      3.905     10.422
REMARK  9 active torsions:
REMARK  status: ('A' for Active; 'I' for Inactive)
REMARK    1  A    between atoms: N_3  and  C_6 
REMARK    2  A    between atoms: C_6  and  C_9 
REMARK    3  A    between atoms: C_14  and  C_17 
REMARK       I    between atoms: N_26  and  C_15 
REMARK    4  A    between atoms: C_15  and  C_16 
REMARK    5  A    between atoms: C_20  and  C_23 
REMARK    6  A    between atoms: OG1_24  and  CB_28 
REMARK    7  A    between atoms: N_26  and  CA_27 
REMARK    8  A    between atoms: CA_27  and  CB_28 
REMARK    9  A    between atoms: CA_27  and  C_30 
ROOT
HETATM    1  O   UNK A   0      14.587   3.359  92.112  1.00  0.00    -0.388 OA
HETATM    2  N   UNK A   0      11.867   4.183  92.275  1.00  0.00     0.096 N 
HETATM    3  C   UNK A   0      12.476   3.335  93.309  1.00  0.00     0.299 C 
HETATM    4  C   UNK A   0      12.524   3.949  90.981  1.00  0.00     0.299 C 
HETATM    5  C   UNK A   0      13.977   3.603  93.381  1.00  0.00     0.198 C 
HETATM    6  C   UNK A   0      14.022   4.203  91.107  1.00  0.00     0.198 C 
ENDROOT
BRANCH   2   7
HETATM    7  C   UNK A   0      10.430   3.935  92.181  1.00  0.00     0.311 C 
BRANCH   7   8
HETATM    8  C   UNK A   0       9.656   5.176  91.893  1.00  0.00    -0.030 A 
HETATM    9  C   UNK A   0       8.770   5.210  90.815  1.00  0.00     0.010 A 
HETATM   10  C   UNK A   0       8.048   6.372  90.543  1.00  0.00     0.021 A 
HETATM   11  C   UNK A   0       8.210   7.497  91.350  1.00  0.00     0.018 A 
HETATM   12  C   UNK A   0       9.094   7.464  92.427  1.00  0.00     0.021 A 
HETATM   13  C   UNK A   0       9.817   6.303  92.698  1.00  0.00     0.010 A 
BRANCH  11  14
HETATM   14  C   UNK A   0       7.467   8.688  91.072  1.00  0.00    -0.061 C 
HETATM   15  C   UNK A   0       6.841   9.688  90.839  1.00  0.00    -0.061 C 
BRANCH  15  16
HETATM   16  C   UNK A   0       6.099  10.878  90.563  1.00  0.00     0.018 A 
HETATM   17  C   UNK A   0       5.233  11.398  91.525  1.00  0.00     0.022 A 
HETATM   18  C   UNK A   0       4.510  12.561  91.256  1.00  0.00     0.018 A 
HETATM   19  C   UNK A   0       4.670  13.177  90.032  1.00  0.00     0.032 A 
HETATM   20  C   UNK A   0       5.519  12.682  89.064  1.00  0.00     0.018 A 
HETATM   21  C   UNK A   0       6.242  11.520  89.332  1.00  0.00     0.022 A 
BRANCH  19  22
HETATM   22  C   UNK A   0       3.898  14.414  89.746  1.00  0.00     0.252 C 
HETATM   23  O   UNK A   0       4.483  15.494  89.724  1.00  0.00    -0.268 OA
ENDBRANCH  19  22
ENDBRANCH  15  16
ENDBRANCH  11  14
ENDBRANCH   7   8
ENDBRANCH   2   7
TORSDOF 9
ENDMDL
MODEL 8
REMARK VINA RESULT:      -6.5      1.781      2.438
REMARK  9 active torsions:
REMARK  status: ('A' for Active; 'I' for Inactive)
REMARK    1  A    between atoms: N_3  and  C_6 
REMARK    2  A    between atoms: C_6  and  C_9 
REMARK    3  A    between atoms: C_14  and  C_17 
REMARK       I    between atoms: N_26  and  C_15 
REMARK    4  A    between atoms: C_15  and  C_16 
REMARK    5  A    between atoms: C_20  and  C_23 
REMARK    6  A    between atoms: OG1_24  and  CB_28 
REMARK    7  A    between atoms: N_26  and  CA_27 
REMARK    8  A    between atoms: CA_27  and  CB_28 
REMARK    9  A    between atoms: CA_27  and  C_30 
ROOT
HETATM    1  O   UNK A   0       3.343  11.805  89.140  1.00  0.00    -0.388 OA
HETATM    2  N   UNK A   0       4.401   9.175  89.401  1.00  0.00     0.096 N 
HETATM    3  C   UNK A   0       3.459   9.521  88.328  1.00  0.00     0.299 C 
HETATM    4  C   UNK A   0       4.164  10.028  90.574  1.00  0.00     0.299 C 
HETATM    5  C   UNK A   0       3.588  11.003  87.983  1.00  0.00     0.198 C 
HETATM    6  C   UNK A   0       4.276  11.497  90.177  1.00  0.00     0.198 C 
ENDROOT
BRANCH   2   7
HETATM    7  C   UNK A   0       4.287   7.762  89.754  1.00  0.00     0.311 C 
BRANCH   7   8
HETATM    8  C   UNK A   0       5.601   7.162  90.127  1.00  0.00    -0.030 A 
HETATM    9  C   UNK A   0       5.899   6.916  91.468  1.00  0.00     0.010 A 
HETATM   10  C   UNK A   0       7.128   6.357  91.817  1.00  0.00     0.021 A 
HETATM   11  C   UNK A   0       8.057   6.042  90.826  1.00  0.00     0.018 A 
HETATM   12  C   UNK A   0       7.760   6.286  89.487  1.00  0.00     0.021 A 
HETATM   13  C   UNK A   0       6.531   6.846  89.137  1.00  0.00     0.010 A 
BRANCH  11  14
HETATM   14  C   UNK A   0       9.316   5.466  91.185  1.00  0.00    -0.061 C 
HETATM   15  C   UNK A   0      10.375   4.983  91.486  1.00  0.00    -0.061 C 
BRANCH  15  16
HETATM   16  C   UNK A   0      11.634   4.408  91.845  1.00  0.00     0.018 A 
HETATM   17  C   UNK A   0      11.843   3.944  93.144  1.00  0.00     0.022 A 
HETATM   18  C   UNK A   0      13.071   3.382  93.493  1.00  0.00     0.018 A 
HETATM   19  C   UNK A   0      14.061   3.295  92.537  1.00  0.00     0.032 A 
HETATM   20  C   UNK A   0      13.879   3.746  91.246  1.00  0.00     0.018 A 
HETATM   21  C   UNK A   0      12.652   4.310  90.896  1.00  0.00     0.022 A 
BRANCH  19  22
HETATM   22  C   UNK A   0      15.369   2.697  92.910  1.00  0.00     0.252 C 
HETATM   23  O   UNK A   0      16.063   3.254  93.756  1.00  0.00    -0.268 OA
ENDBRANCH  19  22
ENDBRANCH  15  16
ENDBRANCH  11  14
ENDBRANCH   7   8
ENDBRANCH   2   7
TORSDOF 9
ENDMDL
MODEL 9
REMARK VINA RESULT:      -6.2      2.677      3.413
REMARK  9 active torsions:
REMARK  status: ('A' for Active; 'I' for Inactive)
REMARK    1  A    between atoms: N_3  and  C_6 
REMARK    2  A    between atoms: C_6  and  C_9 
REMARK    3  A    between atoms: C_14  and  C_17 
REMARK       I    between atoms: N_26  and  C_15 
REMARK    4  A    between atoms: C_15  and  C_16 
REMARK    5  A    between atoms: C_20  and  C_23 
REMARK    6  A    between atoms: OG1_24  and  CB_28 
REMARK    7  A    between atoms: N_26  and  CA_27 
REMARK    8  A    between atoms: CA_27  and  CB_28 
REMARK    9  A    between atoms: CA_27  and  C_30 
ROOT
HETATM    1  O   UNK A   0       4.009  12.315  88.357  1.00  0.00    -0.388 OA
HETATM    2  N   UNK A   0       4.908  10.212  90.051  1.00  0.00     0.096 N 
HETATM    3  C   UNK A   0       3.661  10.098  89.281  1.00  0.00     0.299 C 
HETATM    4  C   UNK A   0       5.178  11.621  90.366  1.00  0.00     0.299 C 
HETATM    5  C   UNK A   0       3.754  10.950  88.018  1.00  0.00     0.198 C 
HETATM    6  C   UNK A   0       5.235  12.437  89.078  1.00  0.00     0.198 C 
ENDROOT
BRANCH   2   7
HETATM    7  C   UNK A   0       4.837   9.411  91.272  1.00  0.00     0.311 C 
BRANCH   7   8
HETATM    8  C   UNK A   0       6.045   8.559  91.464  1.00  0.00    -0.030 A 
HETATM    9  C   UNK A   0       5.979   7.189  91.208  1.00  0.00     0.010 A 
HETATM   10  C   UNK A   0       7.109   6.391  91.389  1.00  0.00     0.021 A 
HETATM   11  C   UNK A   0       8.303   6.963  91.823  1.00  0.00     0.018 A 
HETATM   12  C   UNK A   0       8.370   8.331  92.079  1.00  0.00     0.021 A 
HETATM   13  C   UNK A   0       7.241   9.130  91.899  1.00  0.00     0.010 A 
BRANCH  11  14
HETATM   14  C   UNK A   0       9.462   6.145  92.007  1.00  0.00    -0.061 C 
HETATM   15  C   UNK A   0      10.436   5.457  92.162  1.00  0.00    -0.061 C 
BRANCH  15  16
HETATM   16  C   UNK A   0      11.594   4.638  92.346  1.00  0.00     0.018 A 
HETATM   17  C   UNK A   0      12.463   4.410  91.278  1.00  0.00     0.022 A 
HETATM   18  C   UNK A   0      13.593   3.614  91.459  1.00  0.00     0.018 A 
HETATM   19  C   UNK A   0      13.831   3.065  92.701  1.00  0.00     0.032 A 
HETATM   20  C   UNK A   0      12.987   3.275  93.772  1.00  0.00     0.018 A 
HETATM   21  C   UNK A   0      11.856   4.071  93.593  1.00  0.00     0.022 A 
BRANCH  19  22
HETATM   22  C   UNK A   0      15.034   2.215  92.893  1.00  0.00     0.252 C 
HETATM   23  O   UNK A   0      15.941   2.614  93.620  1.00  0.00    -0.268 OA
ENDBRANCH  19  22
ENDBRANCH  15  16
ENDBRANCH  11  14
ENDBRANCH   7   8
ENDBRANCH   2   7
TORSDOF 9
ENDMDL
