MODEL 1
REMARK VINA RESULT:      -6.3      0.000      0.000
REMARK  12 active torsions:
REMARK  status: ('A' for Active; 'I' for Inactive)
REMARK    1  A    between atoms: O_2  and  C_16 
REMARK    2  A    between atoms: N_5  and  C_9 
REMARK    3  A    between atoms: N_6  and  C_13 
REMARK       I    between atoms: N_6  and  C_22 
REMARK    4  A    between atoms: C_9  and  C_12 
REMARK    5  A    between atoms: C_13  and  C_16 
REMARK    6  A    between atoms: C_13  and  C_21 
REMARK    7  A    between atoms: C_19  and  C_24 
REMARK    8  A    between atoms: C_21  and  C_33 
REMARK    9  A    between atoms: C_22  and  C_23 
REMARK   10  A    between atoms: C_27  and  C_30 
REMARK   11  A    between atoms: C_33  and  C_34 
REMARK   12  A    between atoms: C_34  and  C_35 
ROOT
HETATM    1  O   UNL     1      16.506   3.247  93.728  1.00  0.00    -0.350 OA
HETATM    2  N   UNL     1      13.876   2.791  92.739  1.00  0.00     0.147 N 
HETATM    3  C   UNL     1      14.792   1.678  93.027  1.00  0.00     0.283 C 
HETATM    4  C   UNL     1      14.641   3.989  92.365  1.00  0.00     0.283 C 
HETATM    5  C   UNL     1      15.772   2.087  94.124  1.00  0.00     0.178 C 
HETATM    6  C   UNL     1      15.624   4.342  93.476  1.00  0.00     0.178 C 
ENDROOT
BRANCH   2   7
HETATM    7  C   UNL     1      12.934   2.426  91.682  1.00  0.00     0.277 C 
BRANCH   7   8
HETATM    8  C   UNL     1      11.771   3.355  91.612  1.00  0.00     0.011 A 
HETATM    9  C   UNL     1      11.176   3.635  90.381  1.00  0.00    -0.002 A 
HETATM   10  C   UNL     1      10.089   4.507  90.314  1.00  0.00     0.008 A 
HETATM   11  C   UNL     1       9.596   5.095  91.478  1.00  0.00     0.042 A 
HETATM   12  C   UNL     1      10.188   4.816  92.707  1.00  0.00     0.008 A 
HETATM   13  C   UNL     1      11.276   3.945  92.775  1.00  0.00    -0.002 A 
BRANCH  11  14
HETATM   14  C   UNL     1       8.479   5.988  91.409  1.00  0.00    -0.059 C 
HETATM   15  C   UNL     1       7.541   6.737  91.350  1.00  0.00    -0.059 C 
BRANCH  15  16
HETATM   16  C   UNL     1       6.426   7.629  91.281  1.00  0.00     0.042 A 
HETATM   17  C   UNL     1       5.237   7.210  90.682  1.00  0.00     0.008 A 
HETATM   18  C   UNL     1       4.147   8.079  90.617  1.00  0.00     0.005 A 
HETATM   19  C   UNL     1       4.270   9.344  91.151  1.00  0.00     0.056 A 
HETATM   20  C   UNL     1       5.435   9.781  91.748  1.00  0.00     0.005 A 
HETATM   21  C   UNL     1       6.525   8.914  91.813  1.00  0.00     0.008 A 
BRANCH  19  22
HETATM   22  C   UNL     1       3.110  10.270  91.080  1.00  0.00     0.254 C 
HETATM   23  O   UNL     1       2.011   9.829  90.751  1.00  0.00    -0.268 OA
HETATM   24  N   UNL     1       3.364  11.590  91.423  1.00  0.00    -0.335 N 
HETATM   25  HN  UNL     1       4.293  11.877  91.709  1.00  0.00     0.164 HD
BRANCH  24  26
HETATM   26  C   UNL     1       2.337  12.602  91.427  1.00  0.00     0.166 C 
BRANCH  26  27
HETATM   27  C   UNL     1       2.100  13.202  92.818  1.00  0.00     0.138 C 
HETATM   28  C   UNL     1       3.371  13.246  93.660  1.00  0.00     0.034 C 
BRANCH  27  29
HETATM   29  O   UNL     1       1.586  14.527  92.685  1.00  0.00    -0.383 OA
HETATM   30  H   UNL     1       2.291  15.152  92.924  1.00  0.00     0.210 HD
ENDBRANCH  27  29
ENDBRANCH  26  27
BRANCH  26  31
HETATM   31  C   UNL     1       2.738  13.675  90.420  1.00  0.00     0.181 C 
HETATM   32  O   UNL     1       2.067  14.685  90.216  1.00  0.00    -0.294 OA
BRANCH  31  33
HETATM   33  C   UNL     1       4.259  14.184  90.656  1.00  0.00     0.138 C 
BRANCH  33  34
HETATM   34  C   UNL     1       4.655  14.483  89.334  1.00  0.00     0.208 C 
HETATM   35  O   UNL     1       5.065  15.605  89.141  1.00  0.00    -0.289 OA
BRANCH  34  36
HETATM   36  C   UNL     1       4.931  13.654  88.281  1.00  0.00     0.194 C 
HETATM   37  O   UNL     1       4.551  12.327  88.052  1.00  0.00    -0.185 OA
ENDBRANCH  34  36
ENDBRANCH  33  34
ENDBRANCH  31  33
ENDBRANCH  26  31
ENDBRANCH  24  26
ENDBRANCH  19  22
ENDBRANCH  15  16
ENDBRANCH  11  14
ENDBRANCH   7   8
ENDBRANCH   2   7
TORSDOF 12
ENDMDL
