MODEL 1
REMARK VINA RESULT:      -6.8      0.000      0.000
REMARK  10 active torsions:
REMARK  status: ('A' for Active; 'I' for Inactive)
REMARK    1  A    between atoms: O_2  and  C_18 
REMARK    2  A    between atoms: O_5  and  N_8 
REMARK    3  A    between atoms: N_6  and  C_11 
REMARK    4  A    between atoms: N_7  and  C_15 
REMARK       I    between atoms: N_7  and  C_24 
REMARK       I    between atoms: N_8  and  C_23 
REMARK    5  A    between atoms: C_11  and  C_14 
REMARK    6  A    between atoms: C_15  and  C_18 
REMARK    7  A    between atoms: C_15  and  C_23 
REMARK    8  A    between atoms: C_21  and  C_26 
REMARK    9  A    between atoms: C_24  and  C_25 
REMARK   10  A    between atoms: C_29  and  C_32 
ROOT
HETATM    1  O   UNK     0      16.308   4.422  93.920  0.00  0.00    -0.388 OA
HETATM    2  N   UNK     0      14.674   2.552  92.529  0.00  0.00     0.096 N 
HETATM    3  C   UNK     0      14.531   3.999  92.322  0.00  0.00     0.299 C 
HETATM    4  C   UNK     0      15.162   2.284  93.888  0.00  0.00     0.299 C 
HETATM    5  C   UNK     0      15.863   4.694  92.589  0.00  0.00     0.198 C 
HETATM    6  C   UNK     0      16.479   3.019  94.120  0.00  0.00     0.198 C 
ENDROOT
BRANCH   2   7
HETATM    7  C   UNK     0      13.406   1.866  92.288  0.00  0.00     0.311 C 
BRANCH   7   8
HETATM    8  C   UNK     0      12.293   2.815  91.999  0.00  0.00    -0.030 A 
HETATM    9  C   UNK     0      11.839   2.979  90.690  0.00  0.00     0.010 A 
HETATM   10  C   UNK     0      10.799   3.869  90.419  0.00  0.00     0.021 A 
HETATM   11  C   UNK     0      10.213   4.592  91.457  0.00  0.00     0.018 A 
HETATM   12  C   UNK     0      10.665   4.429  92.765  0.00  0.00     0.021 A 
HETATM   13  C   UNK     0      11.706   3.540  93.036  0.00  0.00     0.010 A 
BRANCH  11  14
HETATM   14  C   UNK     0       9.145   5.503  91.179  0.00  0.00    -0.061 C 
HETATM   15  C   UNK     0       8.248   6.268  90.944  0.00  0.00    -0.061 C 
BRANCH  15  16
HETATM   16  C   UNK     0       7.183   7.178  90.666  0.00  0.00     0.018 A 
HETATM   17  C   UNK     0       5.859   6.739  90.718  0.00  0.00     0.022 A 
HETATM   18  C   UNK     0       4.818   7.628  90.449  0.00  0.00     0.018 A 
HETATM   19  C   UNK     0       5.123   8.935  90.134  0.00  0.00     0.032 A 
HETATM   20  C   UNK     0       6.423   9.395  90.076  0.00  0.00     0.018 A 
HETATM   21  C   UNK     0       7.463   8.506  90.344  0.00  0.00     0.022 A 
BRANCH  19  22
HETATM   22  C   UNK     0       4.015   9.881  89.845  0.00  0.00     0.252 C 
HETATM   23  O   UNK     0       2.951   9.445  89.412  0.00  0.00    -0.268 OA
HETATM   24  N   UNK     0       4.269  11.218  90.119  0.00  0.00    -0.341 N 
HETATM   25  H   UNK     0       5.164  11.502  90.499  0.00  0.00     0.163 HD
BRANCH  24  26
HETATM   26  C   UNK     0       3.287  12.252  89.914  0.00  0.00     0.207 C 
BRANCH  26  27
HETATM   27  C   UNK     0       2.851  12.923  91.223  0.00  0.00     0.146 C 
HETATM   28  C   UNK     0       2.165  11.952  92.177  0.00  0.00     0.042 C 
BRANCH  27  29
HETATM   29  O   UNK     0       3.990  13.485  91.874  0.00  0.00    -0.393 OA
HETATM   30  H   UNK     0       3.887  14.452  91.887  0.00  0.00     0.210 HD
ENDBRANCH  27  29
ENDBRANCH  26  27
BRANCH  26  31
HETATM   31  C   UNK     0       3.874  13.267  88.940  0.00  0.00     0.266 C 
HETATM   32  O   UNK     0       3.904  14.475  89.168  0.00  0.00    -0.269 OA
HETATM   33  N   UNK     0       4.321  12.677  87.782  0.00  0.00    -0.236 N 
HETATM   34  H   UNK     0       4.230  11.701  87.525  0.00  0.00     0.197 HD
BRANCH  33  35
HETATM   35  O   UNK     0       4.842  13.548  86.815  0.00  0.00    -0.287 OA
HETATM   36  H   UNK     0       4.271  14.323  86.952  0.00  0.00     0.244 HD
ENDBRANCH  33  35
ENDBRANCH  26  31
ENDBRANCH  24  26
ENDBRANCH  19  22
ENDBRANCH  15  16
ENDBRANCH  11  14
ENDBRANCH   7   8
ENDBRANCH   2   7
TORSDOF 10
ENDMDL
