MODEL 1
REMARK VINA RESULT:      -7.5      0.000      0.000
REMARK  9 active torsions:
REMARK  status: ('A' for Active; 'I' for Inactive)
REMARK    1  A    between atoms: N_3  and  C_6 
REMARK    2  A    between atoms: C_6  and  C_9 
REMARK    3  A    between atoms: C_14  and  C_17 
REMARK       I    between atoms: N_26  and  C_15 
REMARK    4  A    between atoms: C_15  and  C_16 
REMARK    5  A    between atoms: C_20  and  C_23 
REMARK    6  A    between atoms: OG1_24  and  CB_28 
REMARK    7  A    between atoms: N_26  and  CA_27 
REMARK    8  A    between atoms: CA_27  and  CB_28 
REMARK    9  A    between atoms: CA_27  and  C_30 
ROOT
HETATM    1  O   UNK A   0       1.883   8.189  87.903  1.00  0.00    -0.388 OA
HETATM    2  N   UNK A   0       4.654   7.570  87.690  1.00  0.00     0.096 N 
HETATM    3  C   UNK A   0       4.180   8.960  87.759  1.00  0.00     0.299 C 
HETATM    4  C   UNK A   0       3.626   6.719  87.075  1.00  0.00     0.299 C 
HETATM    5  C   UNK A   0       2.863   9.019  88.529  1.00  0.00     0.198 C 
HETATM    6  C   UNK A   0       2.323   6.831  87.860  1.00  0.00     0.198 C 
ENDROOT
BRANCH   2   7
HETATM    7  C   UNK A   0       5.910   7.488  86.947  1.00  0.00     0.311 C 
BRANCH   7   8
HETATM    8  C   UNK A   0       7.013   6.899  87.760  1.00  0.00    -0.030 A 
HETATM    9  C   UNK A   0       8.248   6.634  87.168  1.00  0.00     0.010 A 
HETATM   10  C   UNK A   0       9.280   6.082  87.927  1.00  0.00     0.021 A 
HETATM   11  C   UNK A   0       9.076   5.797  89.277  1.00  0.00     0.018 A 
HETATM   12  C   UNK A   0       7.843   6.061  89.868  1.00  0.00     0.021 A 
HETATM   13  C   UNK A   0       6.810   6.613  89.110  1.00  0.00     0.010 A 
BRANCH  11  14
HETATM   14  C   UNK A   0      10.135   5.232  90.055  1.00  0.00    -0.061 C 
HETATM   15  C   UNK A   0      11.025   4.756  90.709  1.00  0.00    -0.061 C 
BRANCH  15  16
HETATM   16  C   UNK A   0      12.084   4.191  91.486  1.00  0.00     0.018 A 
HETATM   17  C   UNK A   0      11.875   3.890  92.832  1.00  0.00     0.022 A 
HETATM   18  C   UNK A   0      12.908   3.336  93.590  1.00  0.00     0.018 A 
HETATM   19  C   UNK A   0      14.123   3.096  92.985  1.00  0.00     0.032 A 
HETATM   20  C   UNK A   0      14.355   3.386  91.656  1.00  0.00     0.018 A 
HETATM   21  C   UNK A   0      13.323   3.939  90.898  1.00  0.00     0.022 A 
BRANCH  19  22
HETATM   22  C   UNK A   0      15.223   2.508  93.793  1.00  0.00     0.252 C 
HETATM   23  O   UNK A   0      16.379   2.873  93.589  1.00  0.00    -0.268 OA
ENDBRANCH  19  22
ENDBRANCH  15  16
ENDBRANCH  11  14
ENDBRANCH   7   8
ENDBRANCH   2   7
TORSDOF 9
ENDMDL
