MODEL 1
REMARK VINA RESULT:      -6.9      0.000      0.000
REMARK  11 active torsions:
REMARK  status: ('A' for Active; 'I' for Inactive)
REMARK    1  A    between atoms: O_2  and  C_18 
REMARK    2  A    between atoms: O_5  and  P_8 
REMARK    3  A    between atoms: N_6  and  C_11 
REMARK    4  A    between atoms: N_7  and  C_15 
REMARK       I    between atoms: N_7  and  C_24 
REMARK    5  A    between atoms: P_8  and  C_23 
REMARK    6  A    between atoms: C_11  and  C_14 
REMARK    7  A    between atoms: C_15  and  C_18 
REMARK    8  A    between atoms: C_15  and  C_23 
REMARK    9  A    between atoms: C_21  and  C_26 
REMARK   10  A    between atoms: C_24  and  C_25 
REMARK   11  A    between atoms: C_29  and  C_32 
ROOT
HETATM    1  O   UNL     1      16.430   4.279  94.124  1.00  0.00     0.000 OA
HETATM    2  N   UNL     1      14.642   2.729  92.542  1.00  0.00     0.000 N 
HETATM    3  C   UNL     1      14.548   4.195  92.593  1.00  0.00     0.000 C 
HETATM    4  C   UNL     1      15.195   2.216  93.803  1.00  0.00     0.000 C 
HETATM    5  C   UNL     1      15.923   4.790  92.890  1.00  0.00     0.000 C 
HETATM    6  C   UNL     1      16.553   2.858  94.072  1.00  0.00     0.000 C 
ENDROOT
BRANCH   2   7
HETATM    7  C   UNL     1      13.333   2.137  92.270  1.00  0.00     0.000 C 
BRANCH   7   8
HETATM    8  C   UNL     1      12.292   3.165  91.985  1.00  0.00     0.000 A 
HETATM    9  C   UNL     1      12.130   3.651  90.687  1.00  0.00     0.000 A 
HETATM   10  C   UNL     1      11.157   4.615  90.420  1.00  0.00     0.000 A 
HETATM   11  C   UNL     1      10.347   5.090  91.451  1.00  0.00     0.000 A 
HETATM   12  C   UNL     1      10.508   4.606  92.747  1.00  0.00     0.000 A 
HETATM   13  C   UNL     1      11.481   3.643  93.015  1.00  0.00     0.000 A 
BRANCH  11  14
HETATM   14  C   UNL     1       9.348   6.078  91.176  1.00  0.00     0.000 C 
HETATM   15  C   UNL     1       8.509   6.907  90.945  1.00  0.00     0.000 C 
BRANCH  15  16
HETATM   16  C   UNL     1       7.510   7.892  90.670  1.00  0.00     0.000 A 
HETATM   17  C   UNL     1       7.833   9.248  90.735  1.00  0.00     0.000 A 
HETATM   18  C   UNL     1       6.859  10.209  90.465  1.00  0.00     0.000 A 
HETATM   19  C   UNL     1       5.586   9.794  90.136  1.00  0.00     0.000 A 
HETATM   20  C   UNL     1       5.242   8.461  90.066  1.00  0.00     0.000 A 
HETATM   21  C   UNL     1       6.215   7.498  90.336  1.00  0.00     0.000 A 
BRANCH  19  22
HETATM   22  C   UNL     1       4.549  10.819  89.850  1.00  0.00     0.000 C 
HETATM   23  O   UNL     1       3.524  10.486  89.258  1.00  0.00     0.000 OA
HETATM   24  N   UNL     1       4.817  12.101  90.309  1.00  0.00     0.000 N 
HETATM   25  HN  UNL     1       5.675  12.296  90.813  1.00  0.00     0.000 HD
BRANCH  24  26
HETATM   26  C   UNL     1       3.899  13.197  90.131  1.00  0.00     0.000 C 
BRANCH  26  27
HETATM   27  C   UNL     1       3.412  13.786  91.461  1.00  0.00     0.000 C 
HETATM   28  C   UNL     1       1.932  14.148  91.432  1.00  0.00     0.000 C 
BRANCH  27  29
HETATM   29  O   UNL     1       3.639  12.845  92.510  1.00  0.00     0.000 OA
HETATM   30  H   UNL     1       2.776  12.562  92.858  1.00  0.00     0.000 HD
ENDBRANCH  27  29
ENDBRANCH  26  27
BRANCH  26  31
HETATM   31  C   UNL     1       4.594  14.253  89.278  1.00  0.00     0.000 C 
HETATM   32  O   UNL     1       4.535  15.457  89.522  1.00  0.00     0.000 OA
BRANCH  31  33
HETATM   33  P   UNL     1       5.249  13.703  88.202  1.00  0.00     0.000 P 
HETATM   34  H   UNL     1       5.713  14.738  87.416  1.00  0.00     0.000 HD
BRANCH  33  35
HETATM   35  O   UNL     1       4.482  12.857  87.389  1.00  0.00     0.000 OA
HETATM   36  H   UNL     1       4.965  12.021  87.503  1.00  0.00     0.000 HD
ENDBRANCH  33  35
ENDBRANCH  31  33
ENDBRANCH  26  31
ENDBRANCH  24  26
ENDBRANCH  19  22
ENDBRANCH  15  16
ENDBRANCH  11  14
ENDBRANCH   7   8
ENDBRANCH   2   7
TORSDOF 11
ENDMDL
