MODEL 1
REMARK VINA RESULT:      -7.6      0.000      0.000
REMARK  9 active torsions:
REMARK  status: ('A' for Active; 'I' for Inactive)
REMARK    1  A    between atoms: N_3  and  C_6 
REMARK    2  A    between atoms: C_6  and  C_9 
REMARK    3  A    between atoms: C_14  and  C_17 
REMARK       I    between atoms: N_26  and  C_15 
REMARK    4  A    between atoms: C_15  and  C_16 
REMARK    5  A    between atoms: C_20  and  C_23 
REMARK    6  A    between atoms: OG1_24  and  CB_28 
REMARK    7  A    between atoms: N_26  and  CA_27 
REMARK    8  A    between atoms: CA_27  and  CB_28 
REMARK    9  A    between atoms: CA_27  and  C_30 
ROOT
HETATM    1  O   UNK A   0       2.010   8.174  87.882  1.00  0.00    -0.388 OA
HETATM    2  N   UNK A   0       4.788   7.578  87.713  1.00  0.00     0.096 N 
HETATM    3  C   UNK A   0       4.305   8.961  87.827  1.00  0.00     0.299 C 
HETATM    4  C   UNK A   0       3.781   6.747  87.039  1.00  0.00     0.299 C 
HETATM    5  C   UNK A   0       2.969   8.984  88.566  1.00  0.00     0.198 C 
HETATM    6  C   UNK A   0       2.459   6.821  87.795  1.00  0.00     0.198 C 
ENDROOT
BRANCH   2   7
HETATM    7  C   UNK A   0       6.063   7.532  86.999  1.00  0.00     0.311 C 
BRANCH   7   8
HETATM    8  C   UNK A   0       7.153   6.930  87.820  1.00  0.00    -0.030 A 
HETATM    9  C   UNK A   0       8.387   6.645  87.236  1.00  0.00     0.010 A 
HETATM   10  C   UNK A   0       9.407   6.080  88.003  1.00  0.00     0.021 A 
HETATM   11  C   UNK A   0       9.191   5.803  89.352  1.00  0.00     0.018 A 
HETATM   12  C   UNK A   0       7.959   6.088  89.936  1.00  0.00     0.021 A 
HETATM   13  C   UNK A   0       6.939   6.653  89.170  1.00  0.00     0.010 A 
BRANCH  11  14
HETATM   14  C   UNK A   0      10.238   5.226  90.139  1.00  0.00    -0.061 C 
HETATM   15  C   UNK A   0      11.117   4.741  90.800  1.00  0.00    -0.061 C 
BRANCH  15  16
HETATM   16  C   UNK A   0      12.162   4.164  91.587  1.00  0.00     0.018 A 
HETATM   17  C   UNK A   0      13.418   3.942  91.021  1.00  0.00     0.022 A 
HETATM   18  C   UNK A   0      14.438   3.382  91.790  1.00  0.00     0.018 A 
HETATM   19  C   UNK A   0      14.181   3.057  93.105  1.00  0.00     0.032 A 
HETATM   20  C   UNK A   0      12.948   3.266  93.687  1.00  0.00     0.018 A 
HETATM   21  C   UNK A   0      11.927   3.826  92.920  1.00  0.00     0.022 A 
BRANCH  19  22
HETATM   22  C   UNK A   0      15.267   2.458  93.923  1.00  0.00     0.252 C 
HETATM   23  O   UNK A   0      16.403   2.919  93.841  1.00  0.00    -0.268 OA
ENDBRANCH  19  22
ENDBRANCH  15  16
ENDBRANCH  11  14
ENDBRANCH   7   8
ENDBRANCH   2   7
TORSDOF 9
ENDMDL
