MODEL 1
REMARK VINA RESULT:      -7.6      0.000      0.000
REMARK  9 active torsions:
REMARK  status: ('A' for Active; 'I' for Inactive)
REMARK    1  A    between atoms: N_3  and  C_6 
REMARK    2  A    between atoms: C_6  and  C_9 
REMARK    3  A    between atoms: C_14  and  C_17 
REMARK       I    between atoms: N_26  and  C_15 
REMARK    4  A    between atoms: C_15  and  C_16 
REMARK    5  A    between atoms: C_20  and  C_23 
REMARK    6  A    between atoms: OG1_24  and  CB_28 
REMARK    7  A    between atoms: N_26  and  CA_27 
REMARK    8  A    between atoms: CA_27  and  CB_28 
REMARK    9  A    between atoms: CA_27  and  C_30 
ROOT
HETATM    1  O   UNK A   0       2.010   8.174  87.882  1.00  0.00    -0.388 OA
HETATM    2  N   UNK A   0       4.788   7.578  87.713  1.00  0.00     0.096 N 
HETATM    3  C   UNK A   0       4.305   8.961  87.827  1.00  0.00     0.299 C 
HETATM    4  C   UNK A   0       3.781   6.747  87.039  1.00  0.00     0.299 C 
HETATM    5  C   UNK A   0       2.969   8.984  88.566  1.00  0.00     0.198 C 
HETATM    6  C   UNK A   0       2.459   6.821  87.795  1.00  0.00     0.198 C 
ENDROOT
BRANCH   2   7
HETATM    7  C   UNK A   0       6.063   7.532  86.999  1.00  0.00     0.311 C 
BRANCH   7   8
HETATM    8  C   UNK A   0       7.153   6.930  87.820  1.00  0.00    -0.030 A 
HETATM    9  C   UNK A   0       8.387   6.645  87.236  1.00  0.00     0.010 A 
HETATM   10  C   UNK A   0       9.407   6.080  88.003  1.00  0.00     0.021 A 
HETATM   11  C   UNK A   0       9.191   5.803  89.352  1.00  0.00     0.018 A 
HETATM   12  C   UNK A   0       7.959   6.088  89.936  1.00  0.00     0.021 A 
HETATM   13  C   UNK A   0       6.939   6.653  89.170  1.00  0.00     0.010 A 
BRANCH  11  14
HETATM   14  C   UNK A   0      10.238   5.226  90.139  1.00  0.00    -0.061 C 
HETATM   15  C   UNK A   0      11.117   4.741  90.800  1.00  0.00    -0.061 C 
BRANCH  15  16
HETATM   16  C   UNK A   0      12.162   4.164  91.587  1.00  0.00     0.018 A 
HETATM   17  C   UNK A   0      13.418   3.942  91.021  1.00  0.00     0.022 A 
HETATM   18  C   UNK A   0      14.438   3.382  91.790  1.00  0.00     0.018 A 
HETATM   19  C   UNK A   0      14.181   3.057  93.105  1.00  0.00     0.032 A 
HETATM   20  C   UNK A   0      12.948   3.266  93.687  1.00  0.00     0.018 A 
HETATM   21  C   UNK A   0      11.927   3.826  92.920  1.00  0.00     0.022 A 
BRANCH  19  22
HETATM   22  C   UNK A   0      15.267   2.458  93.923  1.00  0.00     0.252 C 
HETATM   23  O   UNK A   0      16.403   2.919  93.841  1.00  0.00    -0.268 OA
ENDBRANCH  19  22
ENDBRANCH  15  16
ENDBRANCH  11  14
ENDBRANCH   7   8
ENDBRANCH   2   7
TORSDOF 9
ENDMDL
MODEL 2
REMARK VINA RESULT:      -7.5      0.132      1.016
REMARK  9 active torsions:
REMARK  status: ('A' for Active; 'I' for Inactive)
REMARK    1  A    between atoms: N_3  and  C_6 
REMARK    2  A    between atoms: C_6  and  C_9 
REMARK    3  A    between atoms: C_14  and  C_17 
REMARK       I    between atoms: N_26  and  C_15 
REMARK    4  A    between atoms: C_15  and  C_16 
REMARK    5  A    between atoms: C_20  and  C_23 
REMARK    6  A    between atoms: OG1_24  and  CB_28 
REMARK    7  A    between atoms: N_26  and  CA_27 
REMARK    8  A    between atoms: CA_27  and  CB_28 
REMARK    9  A    between atoms: CA_27  and  C_30 
ROOT
HETATM    1  O   UNK A   0       1.879   8.140  87.919  1.00  0.00    -0.388 OA
HETATM    2  N   UNK A   0       4.659   7.561  87.713  1.00  0.00     0.096 N 
HETATM    3  C   UNK A   0       4.166   8.943  87.801  1.00  0.00     0.299 C 
HETATM    4  C   UNK A   0       3.646   6.706  87.079  1.00  0.00     0.299 C 
HETATM    5  C   UNK A   0       2.844   8.973  88.564  1.00  0.00     0.198 C 
HETATM    6  C   UNK A   0       2.337   6.789  87.857  1.00  0.00     0.198 C 
ENDROOT
BRANCH   2   7
HETATM    7  C   UNK A   0       5.920   7.507  86.977  1.00  0.00     0.311 C 
BRANCH   7   8
HETATM    8  C   UNK A   0       7.026   6.919  87.786  1.00  0.00    -0.030 A 
HETATM    9  C   UNK A   0       8.263   6.663  87.193  1.00  0.00     0.010 A 
HETATM   10  C   UNK A   0       9.297   6.111  87.948  1.00  0.00     0.021 A 
HETATM   11  C   UNK A   0       9.094   5.817  89.296  1.00  0.00     0.018 A 
HETATM   12  C   UNK A   0       7.860   6.073  89.889  1.00  0.00     0.021 A 
HETATM   13  C   UNK A   0       6.825   6.624  89.134  1.00  0.00     0.010 A 
BRANCH  11  14
HETATM   14  C   UNK A   0      10.156   5.253  90.072  1.00  0.00    -0.061 C 
HETATM   15  C   UNK A   0      11.049   4.778  90.722  1.00  0.00    -0.061 C 
BRANCH  15  16
HETATM   16  C   UNK A   0      12.110   4.214  91.497  1.00  0.00     0.018 A 
HETATM   17  C   UNK A   0      11.904   3.908  92.842  1.00  0.00     0.022 A 
HETATM   18  C   UNK A   0      12.939   3.356  93.597  1.00  0.00     0.018 A 
HETATM   19  C   UNK A   0      14.155   3.122  92.990  1.00  0.00     0.032 A 
HETATM   20  C   UNK A   0      14.384   3.416  91.662  1.00  0.00     0.018 A 
HETATM   21  C   UNK A   0      13.350   3.969  90.906  1.00  0.00     0.022 A 
BRANCH  19  22
HETATM   22  C   UNK A   0      15.258   2.535  93.794  1.00  0.00     0.252 C 
HETATM   23  O   UNK A   0      16.378   3.037  93.733  1.00  0.00    -0.268 OA
ENDBRANCH  19  22
ENDBRANCH  15  16
ENDBRANCH  11  14
ENDBRANCH   7   8
ENDBRANCH   2   7
TORSDOF 9
ENDMDL
MODEL 3
REMARK VINA RESULT:      -7.5      0.468      1.498
REMARK  9 active torsions:
REMARK  status: ('A' for Active; 'I' for Inactive)
REMARK    1  A    between atoms: N_3  and  C_6 
REMARK    2  A    between atoms: C_6  and  C_9 
REMARK    3  A    between atoms: C_14  and  C_17 
REMARK       I    between atoms: N_26  and  C_15 
REMARK    4  A    between atoms: C_15  and  C_16 
REMARK    5  A    between atoms: C_20  and  C_23 
REMARK    6  A    between atoms: OG1_24  and  CB_28 
REMARK    7  A    between atoms: N_26  and  CA_27 
REMARK    8  A    between atoms: CA_27  and  CB_28 
REMARK    9  A    between atoms: CA_27  and  C_30 
ROOT
HETATM    1  O   UNK A   0       1.906   8.940  88.213  1.00  0.00    -0.388 OA
HETATM    2  N   UNK A   0       4.534   7.919  87.822  1.00  0.00     0.096 N 
HETATM    3  C   UNK A   0       4.261   9.363  87.805  1.00  0.00     0.299 C 
HETATM    4  C   UNK A   0       3.347   7.177  87.377  1.00  0.00     0.299 C 
HETATM    5  C   UNK A   0       3.045   9.669  88.676  1.00  0.00     0.198 C 
HETATM    6  C   UNK A   0       2.153   7.534  88.256  1.00  0.00     0.198 C 
ENDROOT
BRANCH   2   7
HETATM    7  C   UNK A   0       5.690   7.601  86.985  1.00  0.00     0.311 C 
BRANCH   7   8
HETATM    8  C   UNK A   0       6.807   6.996  87.765  1.00  0.00    -0.030 A 
HETATM    9  C   UNK A   0       6.601   6.607  89.089  1.00  0.00     0.010 A 
HETATM   10  C   UNK A   0       7.646   6.044  89.821  1.00  0.00     0.021 A 
HETATM   11  C   UNK A   0       8.896   5.868  89.228  1.00  0.00     0.018 A 
HETATM   12  C   UNK A   0       9.103   6.257  87.906  1.00  0.00     0.021 A 
HETATM   13  C   UNK A   0       8.058   6.821  87.174  1.00  0.00     0.010 A 
BRANCH  11  14
HETATM   14  C   UNK A   0       9.968   5.288  89.978  1.00  0.00    -0.061 C 
HETATM   15  C   UNK A   0      10.868   4.800  90.608  1.00  0.00    -0.061 C 
BRANCH  15  16
HETATM   16  C   UNK A   0      11.939   4.220  91.357  1.00  0.00     0.018 A 
HETATM   17  C   UNK A   0      11.730   3.824  92.679  1.00  0.00     0.022 A 
HETATM   18  C   UNK A   0      12.774   3.256  93.408  1.00  0.00     0.018 A 
HETATM   19  C   UNK A   0      14.002   3.096  92.801  1.00  0.00     0.032 A 
HETATM   20  C   UNK A   0      14.234   3.480  91.496  1.00  0.00     0.018 A 
HETATM   21  C   UNK A   0      13.190   4.048  90.766  1.00  0.00     0.022 A 
BRANCH  19  22
HETATM   22  C   UNK A   0      15.115   2.492  93.579  1.00  0.00     0.252 C 
HETATM   23  O   UNK A   0      16.265   2.872  93.374  1.00  0.00    -0.268 OA
ENDBRANCH  19  22
ENDBRANCH  15  16
ENDBRANCH  11  14
ENDBRANCH   7   8
ENDBRANCH   2   7
TORSDOF 9
ENDMDL
MODEL 4
REMARK VINA RESULT:      -7.5      0.455      1.105
REMARK  9 active torsions:
REMARK  status: ('A' for Active; 'I' for Inactive)
REMARK    1  A    between atoms: N_3  and  C_6 
REMARK    2  A    between atoms: C_6  and  C_9 
REMARK    3  A    between atoms: C_14  and  C_17 
REMARK       I    between atoms: N_26  and  C_15 
REMARK    4  A    between atoms: C_15  and  C_16 
REMARK    5  A    between atoms: C_20  and  C_23 
REMARK    6  A    between atoms: OG1_24  and  CB_28 
REMARK    7  A    between atoms: N_26  and  CA_27 
REMARK    8  A    between atoms: CA_27  and  CB_28 
REMARK    9  A    between atoms: CA_27  and  C_30 
ROOT
HETATM    1  O   UNK A   0       1.911   8.940  88.286  1.00  0.00    -0.388 OA
HETATM    2  N   UNK A   0       4.520   7.878  87.881  1.00  0.00     0.096 N 
HETATM    3  C   UNK A   0       4.277   9.327  87.912  1.00  0.00     0.299 C 
HETATM    4  C   UNK A   0       3.321   7.177  87.401  1.00  0.00     0.299 C 
HETATM    5  C   UNK A   0       3.060   9.629  88.783  1.00  0.00     0.198 C 
HETATM    6  C   UNK A   0       2.127   7.529  88.283  1.00  0.00     0.198 C 
ENDROOT
BRANCH   2   7
HETATM    7  C   UNK A   0       5.676   7.564  87.043  1.00  0.00     0.311 C 
BRANCH   7   8
HETATM    8  C   UNK A   0       6.795   6.961  87.822  1.00  0.00    -0.030 A 
HETATM    9  C   UNK A   0       6.624   6.671  89.176  1.00  0.00     0.010 A 
HETATM   10  C   UNK A   0       7.671   6.109  89.906  1.00  0.00     0.021 A 
HETATM   11  C   UNK A   0       8.888   5.836  89.281  1.00  0.00     0.018 A 
HETATM   12  C   UNK A   0       9.060   6.125  87.929  1.00  0.00     0.021 A 
HETATM   13  C   UNK A   0       8.013   6.688  87.199  1.00  0.00     0.010 A 
BRANCH  11  14
HETATM   14  C   UNK A   0       9.961   5.257  90.029  1.00  0.00    -0.061 C 
HETATM   15  C   UNK A   0      10.864   4.770  90.658  1.00  0.00    -0.061 C 
BRANCH  15  16
HETATM   16  C   UNK A   0      11.937   4.193  91.405  1.00  0.00     0.018 A 
HETATM   17  C   UNK A   0      13.193   4.044  90.818  1.00  0.00     0.022 A 
HETATM   18  C   UNK A   0      14.241   3.482  91.548  1.00  0.00     0.018 A 
HETATM   19  C   UNK A   0      14.009   3.084  92.848  1.00  0.00     0.032 A 
HETATM   20  C   UNK A   0      12.776   3.220  93.451  1.00  0.00     0.018 A 
HETATM   21  C   UNK A   0      11.728   3.781  92.722  1.00  0.00     0.022 A 
BRANCH  19  22
HETATM   22  C   UNK A   0      15.125   2.485  93.625  1.00  0.00     0.252 C 
HETATM   23  O   UNK A   0      16.262   2.924  93.477  1.00  0.00    -0.268 OA
ENDBRANCH  19  22
ENDBRANCH  15  16
ENDBRANCH  11  14
ENDBRANCH   7   8
ENDBRANCH   2   7
TORSDOF 9
ENDMDL
MODEL 5
REMARK VINA RESULT:      -6.9      1.511      2.321
REMARK  9 active torsions:
REMARK  status: ('A' for Active; 'I' for Inactive)
REMARK    1  A    between atoms: N_3  and  C_6 
REMARK    2  A    between atoms: C_6  and  C_9 
REMARK    3  A    between atoms: C_14  and  C_17 
REMARK       I    between atoms: N_26  and  C_15 
REMARK    4  A    between atoms: C_15  and  C_16 
REMARK    5  A    between atoms: C_20  and  C_23 
REMARK    6  A    between atoms: OG1_24  and  CB_28 
REMARK    7  A    between atoms: N_26  and  CA_27 
REMARK    8  A    between atoms: CA_27  and  CB_28 
REMARK    9  A    between atoms: CA_27  and  C_30 
ROOT
HETATM    1  O   UNK A   0       2.842  11.352  89.668  1.00  0.00    -0.388 OA
HETATM    2  N   UNK A   0       4.609   9.331  88.721  1.00  0.00     0.096 N 
HETATM    3  C   UNK A   0       3.849  10.183  87.795  1.00  0.00     0.299 C 
HETATM    4  C   UNK A   0       3.872   9.179  89.983  1.00  0.00     0.299 C 
HETATM    5  C   UNK A   0       3.565  11.533  88.449  1.00  0.00     0.198 C 
HETATM    6  C   UNK A   0       3.587  10.551  90.585  1.00  0.00     0.198 C 
ENDROOT
BRANCH   2   7
HETATM    7  C   UNK A   0       4.883   8.028  88.118  1.00  0.00     0.311 C 
BRANCH   7   8
HETATM    8  C   UNK A   0       6.090   7.376  88.702  1.00  0.00    -0.030 A 
HETATM    9  C   UNK A   0       5.956   6.206  89.451  1.00  0.00     0.010 A 
HETATM   10  C   UNK A   0       7.084   5.596  89.999  1.00  0.00     0.021 A 
HETATM   11  C   UNK A   0       8.346   6.155  89.796  1.00  0.00     0.018 A 
HETATM   12  C   UNK A   0       8.481   7.322  89.048  1.00  0.00     0.021 A 
HETATM   13  C   UNK A   0       7.353   7.933  88.500  1.00  0.00     0.010 A 
BRANCH  11  14
HETATM   14  C   UNK A   0       9.503   5.527  90.357  1.00  0.00    -0.061 C 
HETATM   15  C   UNK A   0      10.476   5.000  90.827  1.00  0.00    -0.061 C 
BRANCH  15  16
HETATM   16  C   UNK A   0      11.633   4.374  91.387  1.00  0.00     0.018 A 
HETATM   17  C   UNK A   0      11.591   3.867  92.686  1.00  0.00     0.022 A 
HETATM   18  C   UNK A   0      12.719   3.254  93.230  1.00  0.00     0.018 A 
HETATM   19  C   UNK A   0      13.863   3.161  92.465  1.00  0.00     0.032 A 
HETATM   20  C   UNK A   0      13.930   3.655  91.179  1.00  0.00     0.018 A 
HETATM   21  C   UNK A   0      12.802   4.268  90.633  1.00  0.00     0.022 A 
BRANCH  19  22
HETATM   22  C   UNK A   0      15.065   2.510  93.047  1.00  0.00     0.252 C 
HETATM   23  O   UNK A   0      15.698   3.093  93.923  1.00  0.00    -0.268 OA
ENDBRANCH  19  22
ENDBRANCH  15  16
ENDBRANCH  11  14
ENDBRANCH   7   8
ENDBRANCH   2   7
TORSDOF 9
ENDMDL
MODEL 6
REMARK VINA RESULT:      -6.6      3.876     10.423
REMARK  9 active torsions:
REMARK  status: ('A' for Active; 'I' for Inactive)
REMARK    1  A    between atoms: N_3  and  C_6 
REMARK    2  A    between atoms: C_6  and  C_9 
REMARK    3  A    between atoms: C_14  and  C_17 
REMARK       I    between atoms: N_26  and  C_15 
REMARK    4  A    between atoms: C_15  and  C_16 
REMARK    5  A    between atoms: C_20  and  C_23 
REMARK    6  A    between atoms: OG1_24  and  CB_28 
REMARK    7  A    between atoms: N_26  and  CA_27 
REMARK    8  A    between atoms: CA_27  and  CB_28 
REMARK    9  A    between atoms: CA_27  and  C_30 
ROOT
HETATM    1  O   UNK A   0      14.612   3.371  92.136  1.00  0.00    -0.388 OA
HETATM    2  N   UNK A   0      11.891   4.186  92.310  1.00  0.00     0.096 N 
HETATM    3  C   UNK A   0      12.504   3.334  93.338  1.00  0.00     0.299 C 
HETATM    4  C   UNK A   0      12.544   3.960  91.013  1.00  0.00     0.299 C 
HETATM    5  C   UNK A   0      14.005   3.607  93.407  1.00  0.00     0.198 C 
HETATM    6  C   UNK A   0      14.042   4.217  91.137  1.00  0.00     0.198 C 
ENDROOT
BRANCH   2   7
HETATM    7  C   UNK A   0      10.454   3.933  92.219  1.00  0.00     0.311 C 
BRANCH   7   8
HETATM    8  C   UNK A   0       9.676   5.172  91.930  1.00  0.00    -0.030 A 
HETATM    9  C   UNK A   0       9.923   6.335  92.660  1.00  0.00     0.010 A 
HETATM   10  C   UNK A   0       9.195   7.494  92.392  1.00  0.00     0.021 A 
HETATM   11  C   UNK A   0       8.222   7.490  91.393  1.00  0.00     0.018 A 
HETATM   12  C   UNK A   0       7.975   6.329  90.663  1.00  0.00     0.021 A 
HETATM   13  C   UNK A   0       8.703   5.169  90.931  1.00  0.00     0.010 A 
BRANCH  11  14
HETATM   14  C   UNK A   0       7.477   8.680  91.116  1.00  0.00    -0.061 C 
HETATM   15  C   UNK A   0       6.851   9.680  90.885  1.00  0.00    -0.061 C 
BRANCH  15  16
HETATM   16  C   UNK A   0       6.107  10.869  90.609  1.00  0.00     0.018 A 
HETATM   17  C   UNK A   0       6.241  11.504  89.374  1.00  0.00     0.022 A 
HETATM   18  C   UNK A   0       5.513  12.663  89.104  1.00  0.00     0.018 A 
HETATM   19  C   UNK A   0       4.667  13.159  90.074  1.00  0.00     0.032 A 
HETATM   20  C   UNK A   0       4.517  12.550  91.302  1.00  0.00     0.018 A 
HETATM   21  C   UNK A   0       5.245  11.392  91.573  1.00  0.00     0.022 A 
BRANCH  19  22
HETATM   22  C   UNK A   0       3.893  14.395  89.787  1.00  0.00     0.252 C 
HETATM   23  O   UNK A   0       4.474  15.478  89.779  1.00  0.00    -0.268 OA
ENDBRANCH  19  22
ENDBRANCH  15  16
ENDBRANCH  11  14
ENDBRANCH   7   8
ENDBRANCH   2   7
TORSDOF 9
ENDMDL
MODEL 7
REMARK VINA RESULT:      -6.6      3.859     10.451
REMARK  9 active torsions:
REMARK  status: ('A' for Active; 'I' for Inactive)
REMARK    1  A    between atoms: N_3  and  C_6 
REMARK    2  A    between atoms: C_6  and  C_9 
REMARK    3  A    between atoms: C_14  and  C_17 
REMARK       I    between atoms: N_26  and  C_15 
REMARK    4  A    between atoms: C_15  and  C_16 
REMARK    5  A    between atoms: C_20  and  C_23 
REMARK    6  A    between atoms: OG1_24  and  CB_28 
REMARK    7  A    between atoms: N_26  and  CA_27 
REMARK    8  A    between atoms: CA_27  and  CB_28 
REMARK    9  A    between atoms: CA_27  and  C_30 
ROOT
HETATM    1  O   UNK A   0      14.615   3.273  92.219  1.00  0.00    -0.388 OA
HETATM    2  N   UNK A   0      11.892   4.098  92.311  1.00  0.00     0.096 N 
HETATM    3  C   UNK A   0      12.482   3.274  93.376  1.00  0.00     0.299 C 
HETATM    4  C   UNK A   0      12.573   3.835  91.036  1.00  0.00     0.299 C 
HETATM    5  C   UNK A   0      13.981   3.546  93.470  1.00  0.00     0.198 C 
HETATM    6  C   UNK A   0      14.069   4.093  91.184  1.00  0.00     0.198 C 
ENDROOT
BRANCH   2   7
HETATM    7  C   UNK A   0      10.457   3.846  92.196  1.00  0.00     0.311 C 
BRANCH   7   8
HETATM    8  C   UNK A   0       9.683   5.089  91.916  1.00  0.00    -0.030 A 
HETATM    9  C   UNK A   0       9.998   6.272  92.586  1.00  0.00     0.010 A 
HETATM   10  C   UNK A   0       9.272   7.434  92.326  1.00  0.00     0.021 A 
HETATM   11  C   UNK A   0       8.234   7.414  91.395  1.00  0.00     0.018 A 
HETATM   12  C   UNK A   0       7.919   6.234  90.726  1.00  0.00     0.021 A 
HETATM   13  C   UNK A   0       8.644   5.070  90.986  1.00  0.00     0.010 A 
BRANCH  11  14
HETATM   14  C   UNK A   0       7.492   8.607  91.128  1.00  0.00    -0.061 C 
HETATM   15  C   UNK A   0       6.868   9.610  90.903  1.00  0.00    -0.061 C 
BRANCH  15  16
HETATM   16  C   UNK A   0       6.126  10.803  90.636  1.00  0.00     0.018 A 
HETATM   17  C   UNK A   0       5.294  11.341  91.619  1.00  0.00     0.022 A 
HETATM   18  C   UNK A   0       4.573  12.506  91.359  1.00  0.00     0.018 A 
HETATM   19  C   UNK A   0       4.700  13.107  90.125  1.00  0.00     0.032 A 
HETATM   20  C   UNK A   0       5.515  12.596  89.137  1.00  0.00     0.018 A 
HETATM   21  C   UNK A   0       6.237  11.430  89.395  1.00  0.00     0.022 A 
BRANCH  19  22
HETATM   22  C   UNK A   0       3.930  14.348  89.848  1.00  0.00     0.252 C 
HETATM   23  O   UNK A   0       4.534  15.406  89.691  1.00  0.00    -0.268 OA
ENDBRANCH  19  22
ENDBRANCH  15  16
ENDBRANCH  11  14
ENDBRANCH   7   8
ENDBRANCH   2   7
TORSDOF 9
ENDMDL
MODEL 8
REMARK VINA RESULT:      -6.4      2.033      2.970
REMARK  9 active torsions:
REMARK  status: ('A' for Active; 'I' for Inactive)
REMARK    1  A    between atoms: N_3  and  C_6 
REMARK    2  A    between atoms: C_6  and  C_9 
REMARK    3  A    between atoms: C_14  and  C_17 
REMARK       I    between atoms: N_26  and  C_15 
REMARK    4  A    between atoms: C_15  and  C_16 
REMARK    5  A    between atoms: C_20  and  C_23 
REMARK    6  A    between atoms: OG1_24  and  CB_28 
REMARK    7  A    between atoms: N_26  and  CA_27 
REMARK    8  A    between atoms: CA_27  and  CB_28 
REMARK    9  A    between atoms: CA_27  and  C_30 
ROOT
HETATM    1  O   UNK A   0       2.502  10.185  87.967  1.00  0.00    -0.388 OA
HETATM    2  N   UNK A   0       3.945   8.759  89.964  1.00  0.00     0.096 N 
HETATM    3  C   UNK A   0       2.589   8.358  89.563  1.00  0.00     0.299 C 
HETATM    4  C   UNK A   0       4.118  10.206  89.776  1.00  0.00     0.299 C 
HETATM    5  C   UNK A   0       2.334   8.774  88.116  1.00  0.00     0.198 C 
HETATM    6  C   UNK A   0       3.827  10.578  88.326  1.00  0.00     0.198 C 
ENDROOT
BRANCH   2   7
HETATM    7  C   UNK A   0       4.207   8.380  91.351  1.00  0.00     0.311 C 
BRANCH   7   8
HETATM    8  C   UNK A   0       5.517   7.687  91.512  1.00  0.00    -0.030 A 
HETATM    9  C   UNK A   0       6.327   7.974  92.612  1.00  0.00     0.010 A 
HETATM   10  C   UNK A   0       7.553   7.328  92.763  1.00  0.00     0.021 A 
HETATM   11  C   UNK A   0       7.969   6.394  91.815  1.00  0.00     0.018 A 
HETATM   12  C   UNK A   0       7.162   6.106  90.717  1.00  0.00     0.021 A 
HETATM   13  C   UNK A   0       5.935   6.752  90.565  1.00  0.00     0.010 A 
BRANCH  11  14
HETATM   14  C   UNK A   0       9.227   5.730  91.971  1.00  0.00    -0.061 C 
HETATM   15  C   UNK A   0      10.284   5.172  92.103  1.00  0.00    -0.061 C 
BRANCH  15  16
HETATM   16  C   UNK A   0      11.540   4.508  92.259  1.00  0.00     0.018 A 
HETATM   17  C   UNK A   0      11.919   4.020  93.510  1.00  0.00     0.022 A 
HETATM   18  C   UNK A   0      13.144   3.370  93.662  1.00  0.00     0.018 A 
HETATM   19  C   UNK A   0      13.961   3.221  92.561  1.00  0.00     0.032 A 
HETATM   20  C   UNK A   0      13.609   3.695  91.314  1.00  0.00     0.018 A 
HETATM   21  C   UNK A   0      12.385   4.345  91.161  1.00  0.00     0.022 A 
BRANCH  19  22
HETATM   22  C   UNK A   0      15.266   2.530  92.724  1.00  0.00     0.252 C 
HETATM   23  O   UNK A   0      15.810   2.527  93.826  1.00  0.00    -0.268 OA
ENDBRANCH  19  22
ENDBRANCH  15  16
ENDBRANCH  11  14
ENDBRANCH   7   8
ENDBRANCH   2   7
TORSDOF 9
ENDMDL
MODEL 9
REMARK VINA RESULT:      -6.2      2.907      3.804
REMARK  9 active torsions:
REMARK  status: ('A' for Active; 'I' for Inactive)
REMARK    1  A    between atoms: N_3  and  C_6 
REMARK    2  A    between atoms: C_6  and  C_9 
REMARK    3  A    between atoms: C_14  and  C_17 
REMARK       I    between atoms: N_26  and  C_15 
REMARK    4  A    between atoms: C_15  and  C_16 
REMARK    5  A    between atoms: C_20  and  C_23 
REMARK    6  A    between atoms: OG1_24  and  CB_28 
REMARK    7  A    between atoms: N_26  and  CA_27 
REMARK    8  A    between atoms: CA_27  and  CB_28 
REMARK    9  A    between atoms: CA_27  and  C_30 
ROOT
HETATM    1  O   UNK A   0       3.753  14.462  89.704  1.00  0.00    -0.388 OA
HETATM    2  N   UNK A   0       4.590  11.768  89.328  1.00  0.00     0.096 N 
HETATM    3  C   UNK A   0       4.748  12.776  88.270  1.00  0.00     0.299 C 
HETATM    4  C   UNK A   0       3.437  12.104  90.176  1.00  0.00     0.299 C 
HETATM    5  C   UNK A   0       4.891  14.162  88.894  1.00  0.00     0.198 C 
HETATM    6  C   UNK A   0       3.611  13.505  90.754  1.00  0.00     0.198 C 
ENDROOT
BRANCH   2   7
HETATM    7  C   UNK A   0       4.440  10.432  88.752  1.00  0.00     0.311 C 
BRANCH   7   8
HETATM    8  C   UNK A   0       5.515   9.499  89.195  1.00  0.00    -0.030 A 
HETATM    9  C   UNK A   0       6.536   9.958  90.028  1.00  0.00     0.010 A 
HETATM   10  C   UNK A   0       7.544   9.086  90.441  1.00  0.00     0.021 A 
HETATM   11  C   UNK A   0       7.528   7.756  90.023  1.00  0.00     0.018 A 
HETATM   12  C   UNK A   0       6.508   7.297  89.191  1.00  0.00     0.021 A 
HETATM   13  C   UNK A   0       5.501   8.168  88.777  1.00  0.00     0.010 A 
BRANCH  11  14
HETATM   14  C   UNK A   0       8.560   6.861  90.448  1.00  0.00    -0.061 C 
HETATM   15  C   UNK A   0       9.428   6.110  90.806  1.00  0.00    -0.061 C 
BRANCH  15  16
HETATM   16  C   UNK A   0      10.460   5.217  91.232  1.00  0.00     0.018 A 
HETATM   17  C   UNK A   0      11.319   4.646  90.293  1.00  0.00     0.022 A 
HETATM   18  C   UNK A   0      12.327   3.776  90.709  1.00  0.00     0.018 A 
HETATM   19  C   UNK A   0      12.453   3.497  92.054  1.00  0.00     0.032 A 
HETATM   20  C   UNK A   0      11.617   4.048  93.002  1.00  0.00     0.018 A 
HETATM   21  C   UNK A   0      10.608   4.918  92.587  1.00  0.00     0.022 A 
BRANCH  19  22
HETATM   22  C   UNK A   0      13.526   2.569  92.496  1.00  0.00     0.252 C 
HETATM   23  O   UNK A   0      14.132   2.807  93.538  1.00  0.00    -0.268 OA
ENDBRANCH  19  22
ENDBRANCH  15  16
ENDBRANCH  11  14
ENDBRANCH   7   8
ENDBRANCH   2   7
TORSDOF 9
ENDMDL
