MODEL 1
REMARK VINA RESULT:      -7.6      0.000      0.000
REMARK  9 active torsions:
REMARK  status: ('A' for Active; 'I' for Inactive)
REMARK    1  A    between atoms: N_3  and  C_6 
REMARK    2  A    between atoms: C_6  and  C_9 
REMARK    3  A    between atoms: C_14  and  C_17 
REMARK       I    between atoms: N_26  and  C_15 
REMARK    4  A    between atoms: C_15  and  C_16 
REMARK    5  A    between atoms: C_20  and  C_23 
REMARK    6  A    between atoms: OG1_24  and  CB_28 
REMARK    7  A    between atoms: N_26  and  CA_27 
REMARK    8  A    between atoms: CA_27  and  CB_28 
REMARK    9  A    between atoms: CA_27  and  C_30 
ROOT
HETATM    1  O   UNK A   0       1.906   8.149  87.861  1.00  0.00    -0.388 OA
HETATM    2  N   UNK A   0       4.687   7.566  87.686  1.00  0.00     0.096 N 
HETATM    3  C   UNK A   0       4.199   8.945  87.827  1.00  0.00     0.299 C 
HETATM    4  C   UNK A   0       3.684   6.746  86.992  1.00  0.00     0.299 C 
HETATM    5  C   UNK A   0       2.862   8.947  88.563  1.00  0.00     0.198 C 
HETATM    6  C   UNK A   0       2.359   6.800  87.747  1.00  0.00     0.198 C 
ENDROOT
BRANCH   2   7
HETATM    7  C   UNK A   0       5.963   7.539  86.973  1.00  0.00     0.311 C 
BRANCH   7   8
HETATM    8  C   UNK A   0       7.055   6.933  87.787  1.00  0.00    -0.030 A 
HETATM    9  C   UNK A   0       8.283   6.636  87.194  1.00  0.00     0.010 A 
HETATM   10  C   UNK A   0       9.305   6.067  87.954  1.00  0.00     0.021 A 
HETATM   11  C   UNK A   0       9.099   5.797  89.306  1.00  0.00     0.018 A 
HETATM   12  C   UNK A   0       7.873   6.093  89.899  1.00  0.00     0.021 A 
HETATM   13  C   UNK A   0       6.851   6.662  89.140  1.00  0.00     0.010 A 
BRANCH  11  14
HETATM   14  C   UNK A   0      10.148   5.216  90.086  1.00  0.00    -0.061 C 
HETATM   15  C   UNK A   0      11.029   4.727  90.742  1.00  0.00    -0.061 C 
BRANCH  15  16
HETATM   16  C   UNK A   0      12.077   4.146  91.522  1.00  0.00     0.018 A 
HETATM   17  C   UNK A   0      13.339   3.954  90.960  1.00  0.00     0.022 A 
HETATM   18  C   UNK A   0      14.362   3.389  91.722  1.00  0.00     0.018 A 
HETATM   19  C   UNK A   0      14.100   3.030  93.028  1.00  0.00     0.032 A 
HETATM   20  C   UNK A   0      12.861   3.209  93.606  1.00  0.00     0.018 A 
HETATM   21  C   UNK A   0      11.838   3.774  92.845  1.00  0.00     0.022 A 
BRANCH  19  22
HETATM   22  C   UNK A   0      15.190   2.427  93.839  1.00  0.00     0.252 C 
HETATM   23  O   UNK A   0      16.345   2.809  93.670  1.00  0.00    -0.268 OA
ENDBRANCH  19  22
ENDBRANCH  15  16
ENDBRANCH  11  14
ENDBRANCH   7   8
ENDBRANCH   2   7
TORSDOF 9
ENDMDL
