MODEL 1
REMARK VINA RESULT:      -6.6      0.000      0.000
REMARK  11 active torsions:
REMARK  status: ('A' for Active; 'I' for Inactive)
REMARK    1  A    between atoms: O_2  and  C_18 
REMARK    2  A    between atoms: O_5  and  P_8 
REMARK    3  A    between atoms: N_6  and  C_11 
REMARK    4  A    between atoms: N_7  and  C_15 
REMARK       I    between atoms: N_7  and  C_24 
REMARK    5  A    between atoms: P_8  and  C_23 
REMARK    6  A    between atoms: C_11  and  C_14 
REMARK    7  A    between atoms: C_15  and  C_18 
REMARK    8  A    between atoms: C_15  and  C_23 
REMARK    9  A    between atoms: C_21  and  C_26 
REMARK   10  A    between atoms: C_24  and  C_25 
REMARK   11  A    between atoms: C_29  and  C_32 
ROOT
HETATM    1  O   UNL     1      16.129   4.252  93.856  1.00  0.00     0.000 OA
HETATM    2  N   UNL     1      14.239   2.613  92.498  1.00  0.00     0.000 N 
HETATM    3  C   UNL     1      14.346   4.052  92.222  1.00  0.00     0.000 C 
HETATM    4  C   UNL     1      14.643   2.335  93.883  1.00  0.00     0.000 C 
HETATM    5  C   UNL     1      15.769   4.528  92.501  1.00  0.00     0.000 C 
HETATM    6  C   UNL     1      16.058   2.851  94.124  1.00  0.00     0.000 C 
ENDROOT
BRANCH   2   7
HETATM    7  C   UNL     1      12.880   2.137  92.247  1.00  0.00     0.000 C 
BRANCH   7   8
HETATM    8  C   UNL     1      11.940   3.248  91.921  1.00  0.00     0.000 A 
HETATM    9  C   UNL     1      11.390   4.018  92.946  1.00  0.00     0.000 A 
HETATM   10  C   UNL     1      10.509   5.056  92.641  1.00  0.00     0.000 A 
HETATM   11  C   UNL     1      10.181   5.324  91.313  1.00  0.00     0.000 A 
HETATM   12  C   UNL     1      10.731   4.555  90.289  1.00  0.00     0.000 A 
HETATM   13  C   UNL     1      11.611   3.517  90.592  1.00  0.00     0.000 A 
BRANCH  11  14
HETATM   14  C   UNL     1       9.280   6.390  91.001  1.00  0.00     0.000 C 
HETATM   15  C   UNL     1       8.522   7.286  90.738  1.00  0.00     0.000 C 
BRANCH  15  16
HETATM   16  C   UNL     1       7.621   8.351  90.425  1.00  0.00     0.000 A 
HETATM   17  C   UNL     1       6.957   8.364  89.198  1.00  0.00     0.000 A 
HETATM   18  C   UNL     1       6.075   9.402  88.895  1.00  0.00     0.000 A 
HETATM   19  C   UNL     1       5.878  10.402  89.823  1.00  0.00     0.000 A 
HETATM   20  C   UNL     1       6.523  10.412  91.042  1.00  0.00     0.000 A 
HETATM   21  C   UNL     1       7.405   9.375  91.347  1.00  0.00     0.000 A 
BRANCH  19  22
HETATM   22  C   UNL     1       4.941  11.508  89.499  1.00  0.00     0.000 C 
HETATM   23  O   UNL     1       4.517  11.617  88.351  1.00  0.00     0.000 OA
HETATM   24  N   UNL     1       4.591  12.338  90.554  1.00  0.00     0.000 N 
HETATM   25  HN  UNL     1       4.962  12.172  91.482  1.00  0.00     0.000 HD
BRANCH  24  26
HETATM   26  C   UNL     1       3.674  13.440  90.404  1.00  0.00     0.000 C 
BRANCH  26  27
HETATM   27  C   UNL     1       2.394  13.263  91.231  1.00  0.00     0.000 C 
HETATM   28  C   UNL     1       2.657  12.609  92.583  1.00  0.00     0.000 C 
BRANCH  27  29
HETATM   29  O   UNL     1       1.783  14.536  91.442  1.00  0.00     0.000 OA
HETATM   30  H   UNL     1       1.400  14.545  92.336  1.00  0.00     0.000 HD
ENDBRANCH  27  29
ENDBRANCH  26  27
BRANCH  26  31
HETATM   31  C   UNL     1       4.412  14.717  90.791  1.00  0.00     0.000 C 
HETATM   32  O   UNL     1       4.498  15.115  91.951  1.00  0.00     0.000 OA
BRANCH  31  33
HETATM   33  P   UNL     1       4.924  15.372  89.697  1.00  0.00     0.000 P 
HETATM   34  H   UNL     1       4.137  16.480  89.461  1.00  0.00     0.000 HD
BRANCH  33  35
HETATM   35  O   UNL     1       4.983  14.626  88.512  1.00  0.00     0.000 OA
HETATM   36  H   UNL     1       5.130  15.337  87.865  1.00  0.00     0.000 HD
ENDBRANCH  33  35
ENDBRANCH  31  33
ENDBRANCH  26  31
ENDBRANCH  24  26
ENDBRANCH  19  22
ENDBRANCH  15  16
ENDBRANCH  11  14
ENDBRANCH   7   8
ENDBRANCH   2   7
TORSDOF 11
ENDMDL
