MODEL 1
REMARK VINA RESULT:      -6.1      0.000      0.000
REMARK  12 active torsions:
REMARK  status: ('A' for Active; 'I' for Inactive)
REMARK    1  A    between atoms: O_2  and  C_16 
REMARK    2  A    between atoms: N_5  and  C_9 
REMARK    3  A    between atoms: N_6  and  C_13 
REMARK       I    between atoms: N_6  and  C_22 
REMARK    4  A    between atoms: C_9  and  C_12 
REMARK    5  A    between atoms: C_13  and  C_16 
REMARK    6  A    between atoms: C_13  and  C_21 
REMARK    7  A    between atoms: C_19  and  C_24 
REMARK    8  A    between atoms: C_21  and  C_33 
REMARK    9  A    between atoms: C_22  and  C_23 
REMARK   10  A    between atoms: C_27  and  C_30 
REMARK   11  A    between atoms: C_33  and  C_34 
REMARK   12  A    between atoms: C_34  and  C_35 
ROOT
HETATM    1  O   UNL     1      16.867   3.671  93.694  1.00  0.00    -0.350 OA
HETATM    2  N   UNL     1      14.250   3.195  92.682  1.00  0.00     0.147 N 
HETATM    3  C   UNL     1      15.152   2.088  93.029  1.00  0.00     0.283 C 
HETATM    4  C   UNL     1      15.030   4.371  92.273  1.00  0.00     0.283 C 
HETATM    5  C   UNL     1      16.119   2.533  94.124  1.00  0.00     0.178 C 
HETATM    6  C   UNL     1      15.999   4.761  93.384  1.00  0.00     0.178 C 
ENDROOT
BRANCH   2   7
HETATM    7  C   UNL     1      13.322   2.794  91.626  1.00  0.00     0.277 C 
BRANCH   7   8
HETATM    8  C   UNL     1      12.145   3.705  91.528  1.00  0.00     0.011 A 
HETATM    9  C   UNL     1      11.575   4.233  92.687  1.00  0.00    -0.002 A 
HETATM   10  C   UNL     1      10.473   5.083  92.597  1.00  0.00     0.008 A 
HETATM   11  C   UNL     1       9.944   5.407  91.348  1.00  0.00     0.042 A 
HETATM   12  C   UNL     1      10.513   4.880  90.190  1.00  0.00     0.008 A 
HETATM   13  C   UNL     1      11.614   4.029  90.280  1.00  0.00    -0.002 A 
BRANCH  11  14
HETATM   14  C   UNL     1       8.815   6.281  91.255  1.00  0.00    -0.059 C 
HETATM   15  C   UNL     1       7.867   7.016  91.177  1.00  0.00    -0.059 C 
BRANCH  15  16
HETATM   16  C   UNL     1       6.739   7.890  91.084  1.00  0.00     0.042 A 
HETATM   17  C   UNL     1       6.121   8.356  92.244  1.00  0.00     0.008 A 
HETATM   18  C   UNL     1       5.023   9.210  92.153  1.00  0.00     0.005 A 
HETATM   19  C   UNL     1       4.567   9.580  90.904  1.00  0.00     0.056 A 
HETATM   20  C   UNL     1       5.160   9.132  89.743  1.00  0.00     0.005 A 
HETATM   21  C   UNL     1       6.259   8.278  89.833  1.00  0.00     0.008 A 
BRANCH  19  22
HETATM   22  C   UNL     1       3.396  10.488  90.808  1.00  0.00     0.254 C 
HETATM   23  O   UNL     1       2.452  10.176  90.085  1.00  0.00    -0.268 OA
HETATM   24  N   UNL     1       3.453  11.639  91.582  1.00  0.00    -0.335 N 
HETATM   25  HN  UNL     1       4.255  11.818  92.175  1.00  0.00     0.164 HD
BRANCH  24  26
HETATM   26  C   UNL     1       2.385  12.605  91.615  1.00  0.00     0.166 C 
BRANCH  26  27
HETATM   27  C   UNL     1       1.843  12.843  93.030  1.00  0.00     0.138 C 
HETATM   28  C   UNL     1       1.362  11.558  93.695  1.00  0.00     0.034 C 
BRANCH  27  29
HETATM   29  O   UNL     1       2.862  13.430  93.839  1.00  0.00    -0.383 OA
HETATM   30  H   UNL     1       2.456  13.733  94.669  1.00  0.00     0.210 HD
ENDBRANCH  27  29
ENDBRANCH  26  27
BRANCH  26  31
HETATM   31  C   UNL     1       2.907  13.898  90.997  1.00  0.00     0.181 C 
HETATM   32  O   UNL     1       2.631  15.011  91.439  1.00  0.00    -0.294 OA
BRANCH  31  33
HETATM   33  C   UNL     1       4.518  13.870  90.815  1.00  0.00     0.138 C 
BRANCH  33  34
HETATM   34  C   UNL     1       4.650  14.324  89.484  1.00  0.00     0.208 C 
HETATM   35  O   UNL     1       4.994  15.475  89.345  1.00  0.00    -0.289 OA
BRANCH  34  36
HETATM   36  C   UNL     1       4.737  13.623  88.312  1.00  0.00     0.194 C 
HETATM   37  O   UNL     1       4.751  12.243  88.083  1.00  0.00    -0.185 OA
ENDBRANCH  34  36
ENDBRANCH  33  34
ENDBRANCH  31  33
ENDBRANCH  26  31
ENDBRANCH  24  26
ENDBRANCH  19  22
ENDBRANCH  15  16
ENDBRANCH  11  14
ENDBRANCH   7   8
ENDBRANCH   2   7
TORSDOF 12
ENDMDL
MODEL 2
REMARK VINA RESULT:      -5.9      1.180      1.895
REMARK  12 active torsions:
REMARK  status: ('A' for Active; 'I' for Inactive)
REMARK    1  A    between atoms: O_2  and  C_16 
REMARK    2  A    between atoms: N_5  and  C_9 
REMARK    3  A    between atoms: N_6  and  C_13 
REMARK       I    between atoms: N_6  and  C_22 
REMARK    4  A    between atoms: C_9  and  C_12 
REMARK    5  A    between atoms: C_13  and  C_16 
REMARK    6  A    between atoms: C_13  and  C_21 
REMARK    7  A    between atoms: C_19  and  C_24 
REMARK    8  A    between atoms: C_21  and  C_33 
REMARK    9  A    between atoms: C_22  and  C_23 
REMARK   10  A    between atoms: C_27  and  C_30 
REMARK   11  A    between atoms: C_33  and  C_34 
REMARK   12  A    between atoms: C_34  and  C_35 
ROOT
HETATM    1  O   UNL     1      16.245   4.303  94.124  1.00  0.00    -0.350 OA
HETATM    2  N   UNL     1      14.464   2.735  92.553  1.00  0.00     0.147 N 
HETATM    3  C   UNL     1      14.393   4.203  92.559  1.00  0.00     0.283 C 
HETATM    4  C   UNL     1      14.984   2.251  93.839  1.00  0.00     0.283 C 
HETATM    5  C   UNL     1      15.771   4.785  92.865  1.00  0.00     0.178 C 
HETATM    6  C   UNL     1      16.346   2.879  94.116  1.00  0.00     0.178 C 
ENDROOT
BRANCH   2   7
HETATM    7  C   UNL     1      13.152   2.155  92.272  1.00  0.00     0.277 C 
BRANCH   7   8
HETATM    8  C   UNL     1      12.082   3.189  92.179  1.00  0.00     0.011 A 
HETATM    9  C   UNL     1      11.467   3.446  90.953  1.00  0.00    -0.002 A 
HETATM   10  C   UNL     1      10.467   4.415  90.864  1.00  0.00     0.008 A 
HETATM   11  C   UNL     1      10.082   5.123  92.002  1.00  0.00     0.042 A 
HETATM   12  C   UNL     1      10.695   4.867  93.226  1.00  0.00     0.008 A 
HETATM   13  C   UNL     1      11.695   3.899  93.315  1.00  0.00    -0.002 A 
BRANCH  11  14
HETATM   14  C   UNL     1       9.054   6.115  91.911  1.00  0.00    -0.059 C 
HETATM   15  C   UNL     1       8.191   6.949  91.836  1.00  0.00    -0.059 C 
BRANCH  15  16
HETATM   16  C   UNL     1       7.165   7.940  91.746  1.00  0.00     0.042 A 
HETATM   17  C   UNL     1       6.015   7.686  90.998  1.00  0.00     0.008 A 
HETATM   18  C   UNL     1       5.013   8.653  90.913  1.00  0.00     0.005 A 
HETATM   19  C   UNL     1       5.183   9.850  91.577  1.00  0.00     0.056 A 
HETATM   20  C   UNL     1       6.310  10.125  92.322  1.00  0.00     0.005 A 
HETATM   21  C   UNL     1       7.313   9.159  92.407  1.00  0.00     0.008 A 
BRANCH  19  22
HETATM   22  C   UNL     1       4.116  10.880  91.484  1.00  0.00     0.254 C 
HETATM   23  O   UNL     1       2.952  10.524  91.315  1.00  0.00    -0.268 OA
HETATM   24  N   UNL     1       4.529  12.197  91.624  1.00  0.00    -0.335 N 
HETATM   25  HN  UNL     1       5.505  12.414  91.787  1.00  0.00     0.164 HD
BRANCH  24  26
HETATM   26  C   UNL     1       3.610  13.307  91.582  1.00  0.00     0.166 C 
BRANCH  26  27
HETATM   27  C   UNL     1       3.730  14.224  92.806  1.00  0.00     0.138 C 
HETATM   28  C   UNL     1       2.390  14.458  93.494  1.00  0.00     0.034 C 
BRANCH  27  29
HETATM   29  O   UNL     1       4.639  13.649  93.746  1.00  0.00    -0.383 OA
HETATM   30  H   UNL     1       4.536  12.683  93.718  1.00  0.00     0.210 HD
ENDBRANCH  27  29
ENDBRANCH  26  27
BRANCH  26  31
HETATM   31  C   UNL     1       3.864  14.073  90.288  1.00  0.00     0.181 C 
HETATM   32  O   UNL     1       3.926  15.300  90.238  1.00  0.00    -0.294 OA
BRANCH  31  33
HETATM   33  C   UNL     1       5.174  13.522  89.509  1.00  0.00     0.138 C 
BRANCH  33  34
HETATM   34  C   UNL     1       4.597  13.034  88.315  1.00  0.00     0.208 C 
HETATM   35  O   UNL     1       5.051  13.477  87.285  1.00  0.00    -0.289 OA
BRANCH  34  36
HETATM   36  C   UNL     1       3.809  11.939  88.094  1.00  0.00     0.194 C 
HETATM   37  O   UNL     1       4.141  10.669  87.609  1.00  0.00    -0.185 OA
ENDBRANCH  34  36
ENDBRANCH  33  34
ENDBRANCH  31  33
ENDBRANCH  26  31
ENDBRANCH  24  26
ENDBRANCH  19  22
ENDBRANCH  15  16
ENDBRANCH  11  14
ENDBRANCH   7   8
ENDBRANCH   2   7
TORSDOF 12
ENDMDL
MODEL 3
REMARK VINA RESULT:      -4.0      1.715      2.305
REMARK  12 active torsions:
REMARK  status: ('A' for Active; 'I' for Inactive)
REMARK    1  A    between atoms: O_2  and  C_16 
REMARK    2  A    between atoms: N_5  and  C_9 
REMARK    3  A    between atoms: N_6  and  C_13 
REMARK       I    between atoms: N_6  and  C_22 
REMARK    4  A    between atoms: C_9  and  C_12 
REMARK    5  A    between atoms: C_13  and  C_16 
REMARK    6  A    between atoms: C_13  and  C_21 
REMARK    7  A    between atoms: C_19  and  C_24 
REMARK    8  A    between atoms: C_21  and  C_33 
REMARK    9  A    between atoms: C_22  and  C_23 
REMARK   10  A    between atoms: C_27  and  C_30 
REMARK   11  A    between atoms: C_33  and  C_34 
REMARK   12  A    between atoms: C_34  and  C_35 
ROOT
HETATM    1  O   UNL     1      16.528   2.706  92.606  1.00  0.00    -0.350 OA
HETATM    2  N   UNL     1      13.777   2.958  93.291  1.00  0.00     0.147 N 
HETATM    3  C   UNL     1      14.683   2.091  94.058  1.00  0.00     0.283 C 
HETATM    4  C   UNL     1      14.235   3.059  91.899  1.00  0.00     0.283 C 
HETATM    5  C   UNL     1      16.109   2.628  93.970  1.00  0.00     0.178 C 
HETATM    6  C   UNL     1      15.671   3.572  91.861  1.00  0.00     0.178 C 
ENDROOT
BRANCH   2   7
HETATM    7  C   UNL     1      12.405   2.457  93.352  1.00  0.00     0.277 C 
BRANCH   7   8
HETATM    8  C   UNL     1      11.396   3.547  93.236  1.00  0.00     0.011 A 
HETATM    9  C   UNL     1      11.429   4.624  94.123  1.00  0.00    -0.002 A 
HETATM   10  C   UNL     1      10.484   5.644  94.017  1.00  0.00     0.008 A 
HETATM   11  C   UNL     1       9.508   5.588  93.023  1.00  0.00     0.042 A 
HETATM   12  C   UNL     1       9.474   4.513  92.136  1.00  0.00     0.008 A 
HETATM   13  C   UNL     1      10.418   3.493  92.243  1.00  0.00    -0.002 A 
BRANCH  11  14
HETATM   14  C   UNL     1       8.539   6.636  92.912  1.00  0.00    -0.059 C 
HETATM   15  C   UNL     1       7.725   7.516  92.820  1.00  0.00    -0.059 C 
BRANCH  15  16
HETATM   16  C   UNL     1       6.758   8.563  92.711  1.00  0.00     0.042 A 
HETATM   17  C   UNL     1       5.466   8.274  92.271  1.00  0.00     0.008 A 
HETATM   18  C   UNL     1       4.522   9.296  92.167  1.00  0.00     0.005 A 
HETATM   19  C   UNL     1       4.890  10.581  92.505  1.00  0.00     0.056 A 
HETATM   20  C   UNL     1       6.161  10.892  92.942  1.00  0.00     0.005 A 
HETATM   21  C   UNL     1       7.106   9.871  93.047  1.00  0.00     0.008 A 
BRANCH  19  22
HETATM   22  C   UNL     1       3.884  11.669  92.392  1.00  0.00     0.254 C 
HETATM   23  O   UNL     1       2.777  11.518  92.903  1.00  0.00    -0.268 OA
HETATM   24  N   UNL     1       4.297  12.811  91.720  1.00  0.00    -0.335 N 
HETATM   25  HN  UNL     1       5.237  12.875  91.346  1.00  0.00     0.164 HD
BRANCH  24  26
HETATM   26  C   UNL     1       3.446  13.961  91.549  1.00  0.00     0.166 C 
BRANCH  26  27
HETATM   27  C   UNL     1       4.069  15.249  92.102  1.00  0.00     0.138 C 
HETATM   28  C   UNL     1       4.433  15.134  93.578  1.00  0.00     0.034 C 
BRANCH  27  29
HETATM   29  O   UNL     1       5.245  15.568  91.358  1.00  0.00    -0.383 OA
HETATM   30  H   UNL     1       5.648  14.737  91.054  1.00  0.00     0.210 HD
ENDBRANCH  27  29
ENDBRANCH  26  27
BRANCH  26  31
HETATM   31  C   UNL     1       3.132  14.091  90.062  1.00  0.00     0.181 C 
HETATM   32  O   UNL     1       3.780  14.806  89.301  1.00  0.00    -0.294 OA
BRANCH  31  33
HETATM   33  C   UNL     1       3.024  12.643  89.341  1.00  0.00     0.138 C 
BRANCH  33  34
HETATM   34  C   UNL     1       4.350  12.463  88.890  1.00  0.00     0.208 C 
HETATM   35  O   UNL     1       4.758  11.325  88.876  1.00  0.00    -0.289 OA
BRANCH  34  36
HETATM   36  C   UNL     1       5.173  13.306  88.193  1.00  0.00     0.194 C 
HETATM   37  O   UNL     1       6.569  13.401  88.181  1.00  0.00    -0.185 OA
ENDBRANCH  34  36
ENDBRANCH  33  34
ENDBRANCH  31  33
ENDBRANCH  26  31
ENDBRANCH  24  26
ENDBRANCH  19  22
ENDBRANCH  15  16
ENDBRANCH  11  14
ENDBRANCH   7   8
ENDBRANCH   2   7
TORSDOF 12
ENDMDL
MODEL 4
REMARK VINA RESULT:      -3.6      2.808     12.372
REMARK  12 active torsions:
REMARK  status: ('A' for Active; 'I' for Inactive)
REMARK    1  A    between atoms: O_2  and  C_16 
REMARK    2  A    between atoms: N_5  and  C_9 
REMARK    3  A    between atoms: N_6  and  C_13 
REMARK       I    between atoms: N_6  and  C_22 
REMARK    4  A    between atoms: C_9  and  C_12 
REMARK    5  A    between atoms: C_13  and  C_16 
REMARK    6  A    between atoms: C_13  and  C_21 
REMARK    7  A    between atoms: C_19  and  C_24 
REMARK    8  A    between atoms: C_21  and  C_33 
REMARK    9  A    between atoms: C_22  and  C_23 
REMARK   10  A    between atoms: C_27  and  C_30 
REMARK   11  A    between atoms: C_33  and  C_34 
REMARK   12  A    between atoms: C_34  and  C_35 
ROOT
HETATM    1  O   UNL     1       2.212  13.677  93.878  1.00  0.00    -0.350 OA
HETATM    2  N   UNL     1       2.164  13.949  91.045  1.00  0.00     0.147 N 
HETATM    3  C   UNL     1       1.901  12.659  91.697  1.00  0.00     0.283 C 
HETATM    4  C   UNL     1       3.059  14.762  91.881  1.00  0.00     0.283 C 
HETATM    5  C   UNL     1       1.317  12.892  93.088  1.00  0.00     0.178 C 
HETATM    6  C   UNL     1       2.448  14.945  93.266  1.00  0.00     0.178 C 
ENDROOT
BRANCH   2   7
HETATM    7  C   UNL     1       2.735  13.750  89.714  1.00  0.00     0.277 C 
BRANCH   7   8
HETATM    8  C   UNL     1       3.736  12.646  89.685  1.00  0.00     0.011 A 
HETATM    9  C   UNL     1       3.334  11.349  89.364  1.00  0.00    -0.002 A 
HETATM   10  C   UNL     1       4.269  10.315  89.338  1.00  0.00     0.008 A 
HETATM   11  C   UNL     1       5.607  10.578  89.632  1.00  0.00     0.042 A 
HETATM   12  C   UNL     1       6.010  11.873  89.952  1.00  0.00     0.008 A 
HETATM   13  C   UNL     1       5.075  12.907  89.978  1.00  0.00    -0.002 A 
BRANCH  11  14
HETATM   14  C   UNL     1       6.567   9.518  89.603  1.00  0.00    -0.059 C 
HETATM   15  C   UNL     1       7.373   8.626  89.579  1.00  0.00    -0.059 C 
BRANCH  15  16
HETATM   16  C   UNL     1       8.333   7.567  89.550  1.00  0.00     0.042 A 
HETATM   17  C   UNL     1       9.239   7.477  88.493  1.00  0.00     0.008 A 
HETATM   18  C   UNL     1      10.177   6.445  88.466  1.00  0.00     0.005 A 
HETATM   19  C   UNL     1      10.189   5.528  89.496  1.00  0.00     0.056 A 
HETATM   20  C   UNL     1       9.303   5.595  90.551  1.00  0.00     0.005 A 
HETATM   21  C   UNL     1       8.365   6.626  90.579  1.00  0.00     0.008 A 
BRANCH  19  22
HETATM   22  C   UNL     1      11.187   4.427  89.466  1.00  0.00     0.254 C 
HETATM   23  O   UNL     1      11.368   3.810  88.420  1.00  0.00    -0.268 OA
HETATM   24  N   UNL     1      11.871   4.195  90.651  1.00  0.00    -0.335 N 
HETATM   25  HN  UNL     1      11.686   4.762  91.470  1.00  0.00     0.164 HD
BRANCH  24  26
HETATM   26  C   UNL     1      12.886   3.180  90.774  1.00  0.00     0.166 C 
BRANCH  26  27
HETATM   27  C   UNL     1      14.307   3.757  90.764  1.00  0.00     0.138 C 
HETATM   28  C   UNL     1      15.144   3.228  89.605  1.00  0.00     0.034 C 
BRANCH  27  29
HETATM   29  O   UNL     1      14.244   5.180  90.679  1.00  0.00    -0.383 OA
HETATM   30  H   UNL     1      14.482   5.442  89.774  1.00  0.00     0.210 HD
ENDBRANCH  27  29
ENDBRANCH  26  27
BRANCH  26  31
HETATM   31  C   UNL     1      12.613   2.401  92.057  1.00  0.00     0.181 C 
HETATM   32  O   UNL     1      13.146   1.323  92.312  1.00  0.00    -0.294 OA
BRANCH  31  33
HETATM   33  C   UNL     1      12.806   3.325  93.375  1.00  0.00     0.138 C 
BRANCH  33  34
HETATM   34  C   UNL     1      11.559   3.986  93.430  1.00  0.00     0.208 C 
HETATM   35  O   UNL     1      10.606   3.361  93.022  1.00  0.00    -0.289 OA
BRANCH  34  36
HETATM   36  C   UNL     1      11.176   5.101  94.124  1.00  0.00     0.194 C 
HETATM   37  O   UNL     1      10.376   6.180  93.731  1.00  0.00    -0.185 OA
ENDBRANCH  34  36
ENDBRANCH  33  34
ENDBRANCH  31  33
ENDBRANCH  26  31
ENDBRANCH  24  26
ENDBRANCH  19  22
ENDBRANCH  15  16
ENDBRANCH  11  14
ENDBRANCH   7   8
ENDBRANCH   2   7
TORSDOF 12
ENDMDL
MODEL 5
REMARK VINA RESULT:      -3.2      1.553      2.171
REMARK  12 active torsions:
REMARK  status: ('A' for Active; 'I' for Inactive)
REMARK    1  A    between atoms: O_2  and  C_16 
REMARK    2  A    between atoms: N_5  and  C_9 
REMARK    3  A    between atoms: N_6  and  C_13 
REMARK       I    between atoms: N_6  and  C_22 
REMARK    4  A    between atoms: C_9  and  C_12 
REMARK    5  A    between atoms: C_13  and  C_16 
REMARK    6  A    between atoms: C_13  and  C_21 
REMARK    7  A    between atoms: C_19  and  C_24 
REMARK    8  A    between atoms: C_21  and  C_33 
REMARK    9  A    between atoms: C_22  and  C_23 
REMARK   10  A    between atoms: C_27  and  C_30 
REMARK   11  A    between atoms: C_33  and  C_34 
REMARK   12  A    between atoms: C_34  and  C_35 
ROOT
HETATM    1  O   UNL     1      17.307   3.066  93.377  1.00  0.00    -0.350 OA
HETATM    2  N   UNL     1      14.543   3.010  92.702  1.00  0.00     0.147 N 
HETATM    3  C   UNL     1      15.017   3.633  93.946  1.00  0.00     0.283 C 
HETATM    4  C   UNL     1      15.454   1.929  92.302  1.00  0.00     0.283 C 
HETATM    5  C   UNL     1      16.445   4.140  93.758  1.00  0.00     0.178 C 
HETATM    6  C   UNL     1      16.871   2.474  92.153  1.00  0.00     0.178 C 
ENDROOT
BRANCH   2   7
HETATM    7  C   UNL     1      13.179   2.508  92.863  1.00  0.00     0.277 C 
BRANCH   7   8
HETATM    8  C   UNL     1      12.169   3.604  92.878  1.00  0.00     0.011 A 
HETATM    9  C   UNL     1      11.655   4.095  91.677  1.00  0.00    -0.002 A 
HETATM   10  C   UNL     1      10.711   5.121  91.691  1.00  0.00     0.008 A 
HETATM   11  C   UNL     1      10.280   5.655  92.905  1.00  0.00     0.042 A 
HETATM   12  C   UNL     1      10.792   5.165  94.105  1.00  0.00     0.008 A 
HETATM   13  C   UNL     1      11.736   4.139  94.092  1.00  0.00    -0.002 A 
BRANCH  11  14
HETATM   14  C   UNL     1       9.310   6.707  92.918  1.00  0.00    -0.059 C 
HETATM   15  C   UNL     1       8.495   7.591  92.930  1.00  0.00    -0.059 C 
BRANCH  15  16
HETATM   16  C   UNL     1       7.526   8.642  92.943  1.00  0.00     0.042 A 
HETATM   17  C   UNL     1       7.791   9.824  93.634  1.00  0.00     0.008 A 
HETATM   18  C   UNL     1       6.846  10.851  93.644  1.00  0.00     0.005 A 
HETATM   19  C   UNL     1       5.661  10.673  92.963  1.00  0.00     0.056 A 
HETATM   20  C   UNL     1       5.376   9.514  92.272  1.00  0.00     0.005 A 
HETATM   21  C   UNL     1       6.319   8.486  92.261  1.00  0.00     0.008 A 
BRANCH  19  22
HETATM   22  C   UNL     1       4.654  11.766  92.975  1.00  0.00     0.254 C 
HETATM   23  O   UNL     1       4.606  12.525  93.940  1.00  0.00    -0.268 OA
HETATM   24  N   UNL     1       3.842  11.858  91.853  1.00  0.00    -0.335 N 
HETATM   25  HN  UNL     1       3.957  11.209  91.083  1.00  0.00     0.164 HD
BRANCH  24  26
HETATM   26  C   UNL     1       2.836  12.878  91.706  1.00  0.00     0.166 C 
BRANCH  26  27
HETATM   27  C   UNL     1       2.229  13.311  93.046  1.00  0.00     0.138 C 
HETATM   28  C   UNL     1       1.524  14.660  92.959  1.00  0.00     0.034 C 
BRANCH  27  29
HETATM   29  O   UNL     1       1.293  12.327  93.486  1.00  0.00    -0.383 OA
HETATM   30  H   UNL     1       0.398  12.644  93.281  1.00  0.00     0.210 HD
ENDBRANCH  27  29
ENDBRANCH  26  27
BRANCH  26  31
HETATM   31  C   UNL     1       3.472  14.058  90.978  1.00  0.00     0.181 C 
HETATM   32  O   UNL     1       4.605  14.466  91.227  1.00  0.00    -0.294 OA
BRANCH  31  33
HETATM   33  C   UNL     1       3.397  13.884  89.368  1.00  0.00     0.138 C 
BRANCH  33  34
HETATM   34  C   UNL     1       4.675  14.347  88.984  1.00  0.00     0.208 C 
HETATM   35  O   UNL     1       5.101  15.302  89.592  1.00  0.00    -0.289 OA
BRANCH  34  36
HETATM   36  C   UNL     1       5.651  13.742  88.239  1.00  0.00     0.194 C 
HETATM   37  O   UNL     1       6.505  12.681  88.559  1.00  0.00    -0.185 OA
ENDBRANCH  34  36
ENDBRANCH  33  34
ENDBRANCH  31  33
ENDBRANCH  26  31
ENDBRANCH  24  26
ENDBRANCH  19  22
ENDBRANCH  15  16
ENDBRANCH  11  14
ENDBRANCH   7   8
ENDBRANCH   2   7
TORSDOF 12
ENDMDL
