MODEL 1
REMARK VINA RESULT:      -6.0      0.000      0.000
REMARK  12 active torsions:
REMARK  status: ('A' for Active; 'I' for Inactive)
REMARK    1  A    between atoms: O_2  and  C_16 
REMARK    2  A    between atoms: N_5  and  C_9 
REMARK    3  A    between atoms: N_6  and  C_13 
REMARK       I    between atoms: N_6  and  C_22 
REMARK    4  A    between atoms: C_9  and  C_12 
REMARK    5  A    between atoms: C_13  and  C_16 
REMARK    6  A    between atoms: C_13  and  C_21 
REMARK    7  A    between atoms: C_19  and  C_24 
REMARK    8  A    between atoms: C_21  and  C_33 
REMARK    9  A    between atoms: C_22  and  C_23 
REMARK   10  A    between atoms: C_27  and  C_30 
REMARK   11  A    between atoms: C_33  and  C_34 
REMARK   12  A    between atoms: C_34  and  C_35 
ROOT
HETATM    1  O   UNL     1      17.052   4.151  93.876  1.00  0.00    -0.350 OA
HETATM    2  N   UNL     1      14.564   3.143  92.931  1.00  0.00     0.147 N 
HETATM    3  C   UNL     1      15.756   2.288  93.017  1.00  0.00     0.283 C 
HETATM    4  C   UNL     1      14.961   4.540  92.709  1.00  0.00     0.283 C 
HETATM    5  C   UNL     1      16.676   2.795  94.124  1.00  0.00     0.178 C 
HETATM    6  C   UNL     1      15.900   4.994  93.822  1.00  0.00     0.178 C 
ENDROOT
BRANCH   2   7
HETATM    7  C   UNL     1      13.671   2.682  91.868  1.00  0.00     0.277 C 
BRANCH   7   8
HETATM    8  C   UNL     1      12.472   3.554  91.716  1.00  0.00     0.011 A 
HETATM    9  C   UNL     1      11.627   3.773  92.804  1.00  0.00    -0.002 A 
HETATM   10  C   UNL     1      10.503   4.586  92.662  1.00  0.00     0.008 A 
HETATM   11  C   UNL     1      10.226   5.182  91.432  1.00  0.00     0.042 A 
HETATM   12  C   UNL     1      11.070   4.964  90.344  1.00  0.00     0.008 A 
HETATM   13  C   UNL     1      12.193   4.150  90.486  1.00  0.00    -0.002 A 
BRANCH  11  14
HETATM   14  C   UNL     1       9.075   6.019  91.286  1.00  0.00    -0.059 C 
HETATM   15  C   UNL     1       8.107   6.722  91.163  1.00  0.00    -0.059 C 
BRANCH  15  16
HETATM   16  C   UNL     1       6.956   7.557  91.018  1.00  0.00     0.042 A 
HETATM   17  C   UNL     1       6.168   7.463  89.870  1.00  0.00     0.008 A 
HETATM   18  C   UNL     1       5.043   8.276  89.729  1.00  0.00     0.005 A 
HETATM   19  C   UNL     1       4.732   9.163  90.739  1.00  0.00     0.056 A 
HETATM   20  C   UNL     1       5.494   9.275  91.882  1.00  0.00     0.005 A 
HETATM   21  C   UNL     1       6.619   8.462  92.024  1.00  0.00     0.008 A 
BRANCH  19  22
HETATM   22  C   UNL     1       3.534  10.030  90.587  1.00  0.00     0.254 C 
HETATM   23  O   UNL     1       2.613   9.660  89.864  1.00  0.00    -0.268 OA
HETATM   24  N   UNL     1       3.543  11.211  91.316  1.00  0.00    -0.335 N 
HETATM   25  HN  UNL     1       4.329  11.439  91.914  1.00  0.00     0.164 HD
BRANCH  24  26
HETATM   26  C   UNL     1       2.446  12.145  91.294  1.00  0.00     0.166 C 
BRANCH  26  27
HETATM   27  C   UNL     1       1.892  12.444  92.693  1.00  0.00     0.138 C 
HETATM   28  C   UNL     1       1.231  11.227  93.331  1.00  0.00     0.034 C 
BRANCH  27  29
HETATM   29  O   UNL     1       2.950  12.894  93.539  1.00  0.00    -0.383 OA
HETATM   30  H   UNL     1       2.585  13.541  94.165  1.00  0.00     0.210 HD
ENDBRANCH  27  29
ENDBRANCH  26  27
BRANCH  26  31
HETATM   31  C   UNL     1       2.930  13.417  90.606  1.00  0.00     0.181 C 
HETATM   32  O   UNL     1       2.421  14.519  90.800  1.00  0.00    -0.294 OA
BRANCH  31  33
HETATM   33  C   UNL     1       4.530  13.622  90.776  1.00  0.00     0.138 C 
BRANCH  33  34
HETATM   34  C   UNL     1       4.872  14.156  89.514  1.00  0.00     0.208 C 
HETATM   35  O   UNL     1       5.204  15.319  89.500  1.00  0.00    -0.289 OA
BRANCH  34  36
HETATM   36  C   UNL     1       5.175  13.528  88.337  1.00  0.00     0.194 C 
HETATM   37  O   UNL     1       4.561  12.437  87.710  1.00  0.00    -0.185 OA
ENDBRANCH  34  36
ENDBRANCH  33  34
ENDBRANCH  31  33
ENDBRANCH  26  31
ENDBRANCH  24  26
ENDBRANCH  19  22
ENDBRANCH  15  16
ENDBRANCH  11  14
ENDBRANCH   7   8
ENDBRANCH   2   7
TORSDOF 12
ENDMDL
MODEL 2
REMARK VINA RESULT:      -6.0      2.147      3.294
REMARK  12 active torsions:
REMARK  status: ('A' for Active; 'I' for Inactive)
REMARK    1  A    between atoms: O_2  and  C_16 
REMARK    2  A    between atoms: N_5  and  C_9 
REMARK    3  A    between atoms: N_6  and  C_13 
REMARK       I    between atoms: N_6  and  C_22 
REMARK    4  A    between atoms: C_9  and  C_12 
REMARK    5  A    between atoms: C_13  and  C_16 
REMARK    6  A    between atoms: C_13  and  C_21 
REMARK    7  A    between atoms: C_19  and  C_24 
REMARK    8  A    between atoms: C_21  and  C_33 
REMARK    9  A    between atoms: C_22  and  C_23 
REMARK   10  A    between atoms: C_27  and  C_30 
REMARK   11  A    between atoms: C_33  and  C_34 
REMARK   12  A    between atoms: C_34  and  C_35 
ROOT
HETATM    1  O   UNL     1      17.421   4.656  93.577  1.00  0.00    -0.350 OA
HETATM    2  N   UNL     1      15.296   2.843  94.124  1.00  0.00     0.147 N 
HETATM    3  C   UNL     1      16.586   2.377  93.596  1.00  0.00     0.283 C 
HETATM    4  C   UNL     1      15.037   4.219  93.679  1.00  0.00     0.283 C 
HETATM    5  C   UNL     1      17.696   3.330  94.031  1.00  0.00     0.178 C 
HETATM    6  C   UNL     1      16.183   5.127  94.111  1.00  0.00     0.178 C 
ENDROOT
BRANCH   2   7
HETATM    7  C   UNL     1      14.215   1.950  93.710  1.00  0.00     0.277 C 
BRANCH   7   8
HETATM    8  C   UNL     1      13.148   2.664  92.950  1.00  0.00     0.011 A 
HETATM    9  C   UNL     1      12.157   3.367  93.636  1.00  0.00    -0.002 A 
HETATM   10  C   UNL     1      11.158   4.034  92.927  1.00  0.00     0.008 A 
HETATM   11  C   UNL     1      11.152   3.998  91.533  1.00  0.00     0.042 A 
HETATM   12  C   UNL     1      12.141   3.296  90.847  1.00  0.00     0.008 A 
HETATM   13  C   UNL     1      13.140   2.629  91.556  1.00  0.00    -0.002 A 
BRANCH  11  14
HETATM   14  C   UNL     1      10.128   4.683  90.805  1.00  0.00    -0.059 C 
HETATM   15  C   UNL     1       9.267   5.258  90.194  1.00  0.00    -0.059 C 
BRANCH  15  16
HETATM   16  C   UNL     1       8.243   5.943  89.468  1.00  0.00     0.042 A 
HETATM   17  C   UNL     1       6.923   5.899  89.916  1.00  0.00     0.008 A 
HETATM   18  C   UNL     1       5.925   6.569  89.209  1.00  0.00     0.005 A 
HETATM   19  C   UNL     1       6.269   7.269  88.072  1.00  0.00     0.056 A 
HETATM   20  C   UNL     1       7.566   7.327  87.608  1.00  0.00     0.005 A 
HETATM   21  C   UNL     1       8.565   6.657  88.314  1.00  0.00     0.008 A 
BRANCH  19  22
HETATM   22  C   UNL     1       5.205   7.981  87.318  1.00  0.00     0.254 C 
HETATM   23  O   UNL     1       5.196   7.919  86.091  1.00  0.00    -0.268 OA
HETATM   24  N   UNL     1       4.266   8.658  88.084  1.00  0.00    -0.335 N 
HETATM   25  HN  UNL     1       4.324   8.644  89.095  1.00  0.00     0.164 HD
BRANCH  24  26
HETATM   26  C   UNL     1       3.161   9.376  87.501  1.00  0.00     0.166 C 
BRANCH  26  27
HETATM   27  C   UNL     1       1.800   8.782  87.884  1.00  0.00     0.138 C 
HETATM   28  C   UNL     1       1.552   7.424  87.236  1.00  0.00     0.034 C 
BRANCH  27  29
HETATM   29  O   UNL     1       1.723   8.640  89.302  1.00  0.00    -0.383 OA
HETATM   30  H   UNL     1       1.020   8.000  89.506  1.00  0.00     0.210 HD
ENDBRANCH  27  29
ENDBRANCH  26  27
BRANCH  26  31
HETATM   31  C   UNL     1       3.272  10.834  87.934  1.00  0.00     0.181 C 
HETATM   32  O   UNL     1       2.295  11.523  88.220  1.00  0.00    -0.294 OA
BRANCH  31  33
HETATM   33  C   UNL     1       4.329  11.023  89.148  1.00  0.00     0.138 C 
BRANCH  33  34
HETATM   34  C   UNL     1       4.784  12.339  88.912  1.00  0.00     0.208 C 
HETATM   35  O   UNL     1       4.870  12.673  87.753  1.00  0.00    -0.289 OA
BRANCH  34  36
HETATM   36  C   UNL     1       4.877  13.410  89.758  1.00  0.00     0.194 C 
HETATM   37  O   UNL     1       3.926  14.378  90.100  1.00  0.00    -0.185 OA
ENDBRANCH  34  36
ENDBRANCH  33  34
ENDBRANCH  31  33
ENDBRANCH  26  31
ENDBRANCH  24  26
ENDBRANCH  19  22
ENDBRANCH  15  16
ENDBRANCH  11  14
ENDBRANCH   7   8
ENDBRANCH   2   7
TORSDOF 12
ENDMDL
MODEL 3
REMARK VINA RESULT:      -5.9      1.560      2.125
REMARK  12 active torsions:
REMARK  status: ('A' for Active; 'I' for Inactive)
REMARK    1  A    between atoms: O_2  and  C_16 
REMARK    2  A    between atoms: N_5  and  C_9 
REMARK    3  A    between atoms: N_6  and  C_13 
REMARK       I    between atoms: N_6  and  C_22 
REMARK    4  A    between atoms: C_9  and  C_12 
REMARK    5  A    between atoms: C_13  and  C_16 
REMARK    6  A    between atoms: C_13  and  C_21 
REMARK    7  A    between atoms: C_19  and  C_24 
REMARK    8  A    between atoms: C_21  and  C_33 
REMARK    9  A    between atoms: C_22  and  C_23 
REMARK   10  A    between atoms: C_27  and  C_30 
REMARK   11  A    between atoms: C_33  and  C_34 
REMARK   12  A    between atoms: C_34  and  C_35 
ROOT
HETATM    1  O   UNL     1      16.373   4.163  94.123  1.00  0.00    -0.350 OA
HETATM    2  N   UNL     1      14.563   2.682  92.501  1.00  0.00     0.147 N 
HETATM    3  C   UNL     1      14.570   4.152  92.498  1.00  0.00     0.283 C 
HETATM    4  C   UNL     1      15.015   2.179  93.805  1.00  0.00     0.283 C 
HETATM    5  C   UNL     1      15.966   4.662  92.847  1.00  0.00     0.178 C 
HETATM    6  C   UNL     1      16.399   2.736  94.124  1.00  0.00     0.178 C 
ENDROOT
BRANCH   2   7
HETATM    7  C   UNL     1      13.232   2.171  92.179  1.00  0.00     0.277 C 
BRANCH   7   8
HETATM    8  C   UNL     1      12.181   3.224  92.269  1.00  0.00     0.011 A 
HETATM    9  C   UNL     1      11.934   3.859  93.487  1.00  0.00    -0.002 A 
HETATM   10  C   UNL     1      10.950   4.843  93.574  1.00  0.00     0.008 A 
HETATM   11  C   UNL     1      10.215   5.194  92.441  1.00  0.00     0.042 A 
HETATM   12  C   UNL     1      10.462   4.562  91.225  1.00  0.00     0.008 A 
HETATM   13  C   UNL     1      11.445   3.577  91.138  1.00  0.00    -0.002 A 
BRANCH  11  14
HETATM   14  C   UNL     1       9.207   6.206  92.529  1.00  0.00    -0.059 C 
HETATM   15  C   UNL     1       8.361   7.056  92.603  1.00  0.00    -0.059 C 
BRANCH  15  16
HETATM   16  C   UNL     1       7.353   8.067  92.690  1.00  0.00     0.042 A 
HETATM   17  C   UNL     1       7.712   9.385  92.975  1.00  0.00     0.008 A 
HETATM   18  C   UNL     1       6.729  10.371  93.057  1.00  0.00     0.005 A 
HETATM   19  C   UNL     1       5.412  10.019  92.852  1.00  0.00     0.056 A 
HETATM   20  C   UNL     1       5.032   8.723  92.570  1.00  0.00     0.005 A 
HETATM   21  C   UNL     1       6.014   7.736  92.488  1.00  0.00     0.008 A 
BRANCH  19  22
HETATM   22  C   UNL     1       4.365  11.070  92.942  1.00  0.00     0.254 C 
HETATM   23  O   UNL     1       3.550  11.027  93.860  1.00  0.00    -0.268 OA
HETATM   24  N   UNL     1       4.409  12.056  91.967  1.00  0.00    -0.335 N 
HETATM   25  HN  UNL     1       5.128  12.040  91.253  1.00  0.00     0.164 HD
BRANCH  24  26
HETATM   26  C   UNL     1       3.478  13.156  91.933  1.00  0.00     0.166 C 
BRANCH  26  27
HETATM   27  C   UNL     1       3.981  14.383  92.704  1.00  0.00     0.138 C 
HETATM   28  C   UNL     1       2.846  15.299  93.148  1.00  0.00     0.034 C 
BRANCH  27  29
HETATM   29  O   UNL     1       4.711  13.959  93.854  1.00  0.00    -0.383 OA
HETATM   30  H   UNL     1       5.448  14.577  93.993  1.00  0.00     0.210 HD
ENDBRANCH  27  29
ENDBRANCH  26  27
BRANCH  26  31
HETATM   31  C   UNL     1       3.207  13.492  90.471  1.00  0.00     0.181 C 
HETATM   32  O   UNL     1       2.272  14.204  90.109  1.00  0.00    -0.294 OA
BRANCH  31  33
HETATM   33  C   UNL     1       4.528  14.070  89.730  1.00  0.00     0.138 C 
BRANCH  33  34
HETATM   34  C   UNL     1       4.608  13.216  88.608  1.00  0.00     0.208 C 
HETATM   35  O   UNL     1       5.468  13.479  87.799  1.00  0.00    -0.289 OA
BRANCH  34  36
HETATM   36  C   UNL     1       4.079  11.972  88.400  1.00  0.00     0.194 C 
HETATM   37  O   UNL     1       4.713  10.741  88.197  1.00  0.00    -0.185 OA
ENDBRANCH  34  36
ENDBRANCH  33  34
ENDBRANCH  31  33
ENDBRANCH  26  31
ENDBRANCH  24  26
ENDBRANCH  19  22
ENDBRANCH  15  16
ENDBRANCH  11  14
ENDBRANCH   7   8
ENDBRANCH   2   7
TORSDOF 12
ENDMDL
MODEL 4
REMARK VINA RESULT:      -5.5      1.194      1.541
REMARK  12 active torsions:
REMARK  status: ('A' for Active; 'I' for Inactive)
REMARK    1  A    between atoms: O_2  and  C_16 
REMARK    2  A    between atoms: N_5  and  C_9 
REMARK    3  A    between atoms: N_6  and  C_13 
REMARK       I    between atoms: N_6  and  C_22 
REMARK    4  A    between atoms: C_9  and  C_12 
REMARK    5  A    between atoms: C_13  and  C_16 
REMARK    6  A    between atoms: C_13  and  C_21 
REMARK    7  A    between atoms: C_19  and  C_24 
REMARK    8  A    between atoms: C_21  and  C_33 
REMARK    9  A    between atoms: C_22  and  C_23 
REMARK   10  A    between atoms: C_27  and  C_30 
REMARK   11  A    between atoms: C_33  and  C_34 
REMARK   12  A    between atoms: C_34  and  C_35 
ROOT
HETATM    1  O   UNL     1      16.637   3.217  93.797  1.00  0.00    -0.350 OA
HETATM    2  N   UNL     1      13.982   2.961  92.802  1.00  0.00     0.147 N 
HETATM    3  C   UNL     1      14.840   1.787  93.011  1.00  0.00     0.283 C 
HETATM    4  C   UNL     1      14.807   4.140  92.499  1.00  0.00     0.283 C 
HETATM    5  C   UNL     1      15.846   2.073  94.124  1.00  0.00     0.178 C 
HETATM    6  C   UNL     1      15.813   4.370  93.622  1.00  0.00     0.178 C 
ENDROOT
BRANCH   2   7
HETATM    7  C   UNL     1      13.017   2.713  91.732  1.00  0.00     0.277 C 
BRANCH   7   8
HETATM    8  C   UNL     1      11.861   3.653  91.781  1.00  0.00     0.011 A 
HETATM    9  C   UNL     1      11.220   4.030  90.600  1.00  0.00    -0.002 A 
HETATM   10  C   UNL     1      10.139   4.911  90.644  1.00  0.00     0.008 A 
HETATM   11  C   UNL     1       9.700   5.413  91.869  1.00  0.00     0.042 A 
HETATM   12  C   UNL     1      10.340   5.038  93.048  1.00  0.00     0.008 A 
HETATM   13  C   UNL     1      11.421   4.157  93.005  1.00  0.00    -0.002 A 
BRANCH  11  14
HETATM   14  C   UNL     1       8.591   6.315  91.914  1.00  0.00    -0.059 C 
HETATM   15  C   UNL     1       7.658   7.074  91.952  1.00  0.00    -0.059 C 
BRANCH  15  16
HETATM   16  C   UNL     1       6.550   7.976  91.997  1.00  0.00     0.042 A 
HETATM   17  C   UNL     1       5.420   7.731  91.216  1.00  0.00     0.008 A 
HETATM   18  C   UNL     1       4.338   8.610  91.263  1.00  0.00     0.005 A 
HETATM   19  C   UNL     1       4.410   9.712  92.088  1.00  0.00     0.056 A 
HETATM   20  C   UNL     1       5.515   9.977  92.869  1.00  0.00     0.005 A 
HETATM   21  C   UNL     1       6.598   9.099  92.824  1.00  0.00     0.008 A 
BRANCH  19  22
HETATM   22  C   UNL     1       3.257  10.649  92.135  1.00  0.00     0.254 C 
HETATM   23  O   UNL     1       2.142  10.215  92.412  1.00  0.00    -0.268 OA
HETATM   24  N   UNL     1       3.547  11.982  91.879  1.00  0.00    -0.335 N 
HETATM   25  HN  UNL     1       4.497  12.272  91.681  1.00  0.00     0.164 HD
BRANCH  24  26
HETATM   26  C   UNL     1       2.542  13.014  91.911  1.00  0.00     0.166 C 
BRANCH  26  27
HETATM   27  C   UNL     1       2.445  13.706  93.277  1.00  0.00     0.138 C 
HETATM   28  C   UNL     1       3.814  14.032  93.864  1.00  0.00     0.034 C 
BRANCH  27  29
HETATM   29  O   UNL     1       1.696  14.914  93.148  1.00  0.00    -0.383 OA
HETATM   30  H   UNL     1       2.322  15.658  93.113  1.00  0.00     0.210 HD
ENDBRANCH  27  29
ENDBRANCH  26  27
BRANCH  26  31
HETATM   31  C   UNL     1       2.864  14.013  90.805  1.00  0.00     0.181 C 
HETATM   32  O   UNL     1       2.258  15.074  90.662  1.00  0.00    -0.294 OA
BRANCH  31  33
HETATM   33  C   UNL     1       4.441  14.387  90.771  1.00  0.00     0.138 C 
BRANCH  33  34
HETATM   34  C   UNL     1       4.711  14.309  89.387  1.00  0.00     0.208 C 
HETATM   35  O   UNL     1       4.939  15.358  88.829  1.00  0.00    -0.289 OA
BRANCH  34  36
HETATM   36  C   UNL     1       5.045  13.236  88.607  1.00  0.00     0.194 C 
HETATM   37  O   UNL     1       5.880  12.146  88.877  1.00  0.00    -0.185 OA
ENDBRANCH  34  36
ENDBRANCH  33  34
ENDBRANCH  31  33
ENDBRANCH  26  31
ENDBRANCH  24  26
ENDBRANCH  19  22
ENDBRANCH  15  16
ENDBRANCH  11  14
ENDBRANCH   7   8
ENDBRANCH   2   7
TORSDOF 12
ENDMDL
MODEL 5
REMARK VINA RESULT:      -5.0      2.483     12.786
REMARK  12 active torsions:
REMARK  status: ('A' for Active; 'I' for Inactive)
REMARK    1  A    between atoms: O_2  and  C_16 
REMARK    2  A    between atoms: N_5  and  C_9 
REMARK    3  A    between atoms: N_6  and  C_13 
REMARK       I    between atoms: N_6  and  C_22 
REMARK    4  A    between atoms: C_9  and  C_12 
REMARK    5  A    between atoms: C_13  and  C_16 
REMARK    6  A    between atoms: C_13  and  C_21 
REMARK    7  A    between atoms: C_19  and  C_24 
REMARK    8  A    between atoms: C_21  and  C_33 
REMARK    9  A    between atoms: C_22  and  C_23 
REMARK   10  A    between atoms: C_27  and  C_30 
REMARK   11  A    between atoms: C_33  and  C_34 
REMARK   12  A    between atoms: C_34  and  C_35 
ROOT
HETATM    1  O   UNL     1       3.092  14.863  94.020  1.00  0.00    -0.350 OA
HETATM    2  N   UNL     1       2.740  14.592  91.209  1.00  0.00     0.147 N 
HETATM    3  C   UNL     1       1.810  13.971  92.162  1.00  0.00     0.283 C 
HETATM    4  C   UNL     1       4.076  14.705  91.809  1.00  0.00     0.283 C 
HETATM    5  C   UNL     1       1.781  14.779  93.457  1.00  0.00     0.178 C 
HETATM    6  C   UNL     1       3.995  15.494  93.111  1.00  0.00     0.178 C 
ENDROOT
BRANCH   2   7
HETATM    7  C   UNL     1       2.791  13.828  89.964  1.00  0.00     0.277 C 
BRANCH   7   8
HETATM    8  C   UNL     1       3.753  12.691  90.035  1.00  0.00     0.011 A 
HETATM    9  C   UNL     1       3.454  11.574  90.817  1.00  0.00    -0.002 A 
HETATM   10  C   UNL     1       4.354  10.511  90.886  1.00  0.00     0.008 A 
HETATM   11  C   UNL     1       5.550  10.563  90.171  1.00  0.00     0.042 A 
HETATM   12  C   UNL     1       5.849  11.678  89.390  1.00  0.00     0.008 A 
HETATM   13  C   UNL     1       4.950  12.742  89.321  1.00  0.00    -0.002 A 
BRANCH  11  14
HETATM   14  C   UNL     1       6.472   9.471  90.241  1.00  0.00    -0.059 C 
HETATM   15  C   UNL     1       7.247   8.554  90.298  1.00  0.00    -0.059 C 
BRANCH  15  16
HETATM   16  C   UNL     1       8.169   7.463  90.367  1.00  0.00     0.042 A 
HETATM   17  C   UNL     1       9.213   7.374  89.446  1.00  0.00     0.008 A 
HETATM   18  C   UNL     1      10.114   6.312  89.516  1.00  0.00     0.005 A 
HETATM   19  C   UNL     1       9.951   5.363  90.504  1.00  0.00     0.056 A 
HETATM   20  C   UNL     1       8.928   5.429  91.425  1.00  0.00     0.005 A 
HETATM   21  C   UNL     1       8.026   6.491  91.357  1.00  0.00     0.008 A 
BRANCH  19  22
HETATM   22  C   UNL     1      10.910   4.230  90.576  1.00  0.00     0.254 C 
HETATM   23  O   UNL     1      10.739   3.253  89.852  1.00  0.00    -0.268 OA
HETATM   24  N   UNL     1      11.966   4.383  91.464  1.00  0.00    -0.335 N 
HETATM   25  HN  UNL     1      12.056   5.230  92.012  1.00  0.00     0.164 HD
BRANCH  24  26
HETATM   26  C   UNL     1      12.990   3.383  91.630  1.00  0.00     0.166 C 
BRANCH  26  27
HETATM   27  C   UNL     1      14.321   3.784  90.981  1.00  0.00     0.138 C 
HETATM   28  C   UNL     1      14.488   3.202  89.582  1.00  0.00     0.034 C 
BRANCH  27  29
HETATM   29  O   UNL     1      14.405   5.207  90.904  1.00  0.00    -0.383 OA
HETATM   30  H   UNL     1      14.804   5.443  90.050  1.00  0.00     0.210 HD
ENDBRANCH  27  29
ENDBRANCH  26  27
BRANCH  26  31
HETATM   31  C   UNL     1      13.156   3.130  93.125  1.00  0.00     0.181 C 
HETATM   32  O   UNL     1      12.226   2.787  93.853  1.00  0.00    -0.294 OA
BRANCH  31  33
HETATM   33  C   UNL     1      14.372   2.103  93.430  1.00  0.00     0.138 C 
BRANCH  33  34
HETATM   34  C   UNL     1      15.414   3.001  93.754  1.00  0.00     0.208 C 
HETATM   35  O   UNL     1      15.080   4.137  93.999  1.00  0.00    -0.289 OA
BRANCH  34  36
HETATM   36  C   UNL     1      16.709   2.761  94.121  1.00  0.00     0.194 C 
HETATM   37  O   UNL     1      17.898   3.355  93.682  1.00  0.00    -0.185 OA
ENDBRANCH  34  36
ENDBRANCH  33  34
ENDBRANCH  31  33
ENDBRANCH  26  31
ENDBRANCH  24  26
ENDBRANCH  19  22
ENDBRANCH  15  16
ENDBRANCH  11  14
ENDBRANCH   7   8
ENDBRANCH   2   7
TORSDOF 12
ENDMDL
MODEL 6
REMARK VINA RESULT:      -4.6      3.056     12.288
REMARK  12 active torsions:
REMARK  status: ('A' for Active; 'I' for Inactive)
REMARK    1  A    between atoms: O_2  and  C_16 
REMARK    2  A    between atoms: N_5  and  C_9 
REMARK    3  A    between atoms: N_6  and  C_13 
REMARK       I    between atoms: N_6  and  C_22 
REMARK    4  A    between atoms: C_9  and  C_12 
REMARK    5  A    between atoms: C_13  and  C_16 
REMARK    6  A    between atoms: C_13  and  C_21 
REMARK    7  A    between atoms: C_19  and  C_24 
REMARK    8  A    between atoms: C_21  and  C_33 
REMARK    9  A    between atoms: C_22  and  C_23 
REMARK   10  A    between atoms: C_27  and  C_30 
REMARK   11  A    between atoms: C_33  and  C_34 
REMARK   12  A    between atoms: C_34  and  C_35 
ROOT
HETATM    1  O   UNL     1       3.052  14.886  94.043  1.00  0.00    -0.350 OA
HETATM    2  N   UNL     1       2.646  14.825  91.226  1.00  0.00     0.147 N 
HETATM    3  C   UNL     1       1.765  14.091  92.145  1.00  0.00     0.283 C 
HETATM    4  C   UNL     1       3.991  14.945  91.807  1.00  0.00     0.283 C 
HETATM    5  C   UNL     1       1.733  14.792  93.501  1.00  0.00     0.178 C 
HETATM    6  C   UNL     1       3.907  15.624  93.170  1.00  0.00     0.178 C 
ENDROOT
BRANCH   2   7
HETATM    7  C   UNL     1       2.700  14.165  89.923  1.00  0.00     0.277 C 
BRANCH   7   8
HETATM    8  C   UNL     1       3.696  13.056  89.888  1.00  0.00     0.011 A 
HETATM    9  C   UNL     1       3.414  11.846  90.523  1.00  0.00    -0.002 A 
HETATM   10  C   UNL     1       4.346  10.809  90.493  1.00  0.00     0.008 A 
HETATM   11  C   UNL     1       5.559  10.982  89.826  1.00  0.00     0.042 A 
HETATM   12  C   UNL     1       5.841  12.190  89.191  1.00  0.00     0.008 A 
HETATM   13  C   UNL     1       4.909  13.227  89.222  1.00  0.00    -0.002 A 
BRANCH  11  14
HETATM   14  C   UNL     1       6.514   9.917  89.794  1.00  0.00    -0.059 C 
HETATM   15  C   UNL     1       7.317   9.023  89.766  1.00  0.00    -0.059 C 
BRANCH  15  16
HETATM   16  C   UNL     1       8.272   7.960  89.733  1.00  0.00     0.042 A 
HETATM   17  C   UNL     1       9.500   8.146  89.097  1.00  0.00     0.008 A 
HETATM   18  C   UNL     1      10.432   7.109  89.067  1.00  0.00     0.005 A 
HETATM   19  C   UNL     1      10.118   5.912  89.675  1.00  0.00     0.056 A 
HETATM   20  C   UNL     1       8.912   5.703  90.311  1.00  0.00     0.005 A 
HETATM   21  C   UNL     1       7.978   6.739  90.340  1.00  0.00     0.008 A 
BRANCH  19  22
HETATM   22  C   UNL     1      11.111   4.807  89.642  1.00  0.00     0.254 C 
HETATM   23  O   UNL     1      11.248   4.154  88.611  1.00  0.00    -0.268 OA
HETATM   24  N   UNL     1      11.842   4.612  90.806  1.00  0.00    -0.335 N 
HETATM   25  HN  UNL     1      11.692   5.207  91.612  1.00  0.00     0.164 HD
BRANCH  24  26
HETATM   26  C   UNL     1      12.858   3.597  90.922  1.00  0.00     0.166 C 
BRANCH  26  27
HETATM   27  C   UNL     1      14.222   4.167  91.333  1.00  0.00     0.138 C 
HETATM   28  C   UNL     1      15.316   3.106  91.354  1.00  0.00     0.034 C 
BRANCH  27  29
HETATM   29  O   UNL     1      14.599   5.203  90.426  1.00  0.00    -0.383 OA
HETATM   30  H   UNL     1      14.932   5.955  90.944  1.00  0.00     0.210 HD
ENDBRANCH  27  29
ENDBRANCH  26  27
BRANCH  26  31
HETATM   31  C   UNL     1      12.367   2.558  91.925  1.00  0.00     0.181 C 
HETATM   32  O   UNL     1      12.861   1.436  92.024  1.00  0.00    -0.294 OA
BRANCH  31  33
HETATM   33  C   UNL     1      12.302   3.157  93.430  1.00  0.00     0.138 C 
BRANCH  33  34
HETATM   34  C   UNL     1      11.148   3.968  93.352  1.00  0.00     0.208 C 
HETATM   35  O   UNL     1      10.194   3.483  92.788  1.00  0.00    -0.289 OA
BRANCH  34  36
HETATM   36  C   UNL     1      10.809   5.097  94.045  1.00  0.00     0.194 C 
HETATM   37  O   UNL     1       9.652   5.883  93.984  1.00  0.00    -0.185 OA
ENDBRANCH  34  36
ENDBRANCH  33  34
ENDBRANCH  31  33
ENDBRANCH  26  31
ENDBRANCH  24  26
ENDBRANCH  19  22
ENDBRANCH  15  16
ENDBRANCH  11  14
ENDBRANCH   7   8
ENDBRANCH   2   7
TORSDOF 12
ENDMDL
MODEL 7
REMARK VINA RESULT:      -3.9      2.497     12.782
REMARK  12 active torsions:
REMARK  status: ('A' for Active; 'I' for Inactive)
REMARK    1  A    between atoms: O_2  and  C_16 
REMARK    2  A    between atoms: N_5  and  C_9 
REMARK    3  A    between atoms: N_6  and  C_13 
REMARK       I    between atoms: N_6  and  C_22 
REMARK    4  A    between atoms: C_9  and  C_12 
REMARK    5  A    between atoms: C_13  and  C_16 
REMARK    6  A    between atoms: C_13  and  C_21 
REMARK    7  A    between atoms: C_19  and  C_24 
REMARK    8  A    between atoms: C_21  and  C_33 
REMARK    9  A    between atoms: C_22  and  C_23 
REMARK   10  A    between atoms: C_27  and  C_30 
REMARK   11  A    between atoms: C_33  and  C_34 
REMARK   12  A    between atoms: C_34  and  C_35 
ROOT
HETATM    1  O   UNL     1       2.508  14.715  94.060  1.00  0.00    -0.350 OA
HETATM    2  N   UNL     1       2.633  14.582  91.219  1.00  0.00     0.147 N 
HETATM    3  C   UNL     1       1.515  13.991  91.967  1.00  0.00     0.283 C 
HETATM    4  C   UNL     1       3.850  14.576  92.043  1.00  0.00     0.283 C 
HETATM    5  C   UNL     1       1.313  14.747  93.278  1.00  0.00     0.178 C 
HETATM    6  C   UNL     1       3.593  15.316  93.352  1.00  0.00     0.178 C 
ENDROOT
BRANCH   2   7
HETATM    7  C   UNL     1       2.852  13.867  89.963  1.00  0.00     0.277 C 
BRANCH   7   8
HETATM    8  C   UNL     1       3.833  12.754  90.108  1.00  0.00     0.011 A 
HETATM    9  C   UNL     1       4.938  12.684  89.257  1.00  0.00    -0.002 A 
HETATM   10  C   UNL     1       5.855  11.642  89.389  1.00  0.00     0.008 A 
HETATM   11  C   UNL     1       5.669  10.672  90.374  1.00  0.00     0.042 A 
HETATM   12  C   UNL     1       4.568  10.741  91.224  1.00  0.00     0.008 A 
HETATM   13  C   UNL     1       3.649  11.782  91.091  1.00  0.00    -0.002 A 
BRANCH  11  14
HETATM   14  C   UNL     1       6.612   9.604  90.511  1.00  0.00    -0.059 C 
HETATM   15  C   UNL     1       7.405   8.708  90.625  1.00  0.00    -0.059 C 
BRANCH  15  16
HETATM   16  C   UNL     1       8.347   7.641  90.763  1.00  0.00     0.042 A 
HETATM   17  C   UNL     1       8.564   7.060  92.012  1.00  0.00     0.008 A 
HETATM   18  C   UNL     1       9.482   6.018  92.145  1.00  0.00     0.005 A 
HETATM   19  C   UNL     1      10.161   5.581  91.027  1.00  0.00     0.056 A 
HETATM   20  C   UNL     1       9.964   6.139  89.782  1.00  0.00     0.005 A 
HETATM   21  C   UNL     1       9.047   7.181  89.647  1.00  0.00     0.008 A 
BRANCH  19  22
HETATM   22  C   UNL     1      11.140   4.472  91.170  1.00  0.00     0.254 C 
HETATM   23  O   UNL     1      11.479   3.839  90.173  1.00  0.00    -0.268 OA
HETATM   24  N   UNL     1      11.624   4.250  92.452  1.00  0.00    -0.335 N 
HETATM   25  HN  UNL     1      11.317   4.830  93.224  1.00  0.00     0.164 HD
BRANCH  24  26
HETATM   26  C   UNL     1      12.596   3.228  92.747  1.00  0.00     0.166 C 
BRANCH  26  27
HETATM   27  C   UNL     1      12.423   1.976  91.879  1.00  0.00     0.138 C 
HETATM   28  C   UNL     1      13.394   0.863  92.259  1.00  0.00     0.034 C 
BRANCH  27  29
HETATM   29  O   UNL     1      11.088   1.488  92.005  1.00  0.00    -0.383 OA
HETATM   30  H   UNL     1      11.119   0.626  92.453  1.00  0.00     0.210 HD
ENDBRANCH  27  29
ENDBRANCH  26  27
BRANCH  26  31
HETATM   31  C   UNL     1      13.983   3.839  92.570  1.00  0.00     0.181 C 
HETATM   32  O   UNL     1      14.283   4.553  91.614  1.00  0.00    -0.294 OA
BRANCH  31  33
HETATM   33  C   UNL     1      14.465   4.635  93.897  1.00  0.00     0.138 C 
BRANCH  33  34
HETATM   34  C   UNL     1      15.863   4.442  93.839  1.00  0.00     0.208 C 
HETATM   35  O   UNL     1      16.537   5.444  93.780  1.00  0.00    -0.289 OA
BRANCH  34  36
HETATM   36  C   UNL     1      16.619   3.337  94.122  1.00  0.00     0.194 C 
HETATM   37  O   UNL     1      17.776   2.850  93.504  1.00  0.00    -0.185 OA
ENDBRANCH  34  36
ENDBRANCH  33  34
ENDBRANCH  31  33
ENDBRANCH  26  31
ENDBRANCH  24  26
ENDBRANCH  19  22
ENDBRANCH  15  16
ENDBRANCH  11  14
ENDBRANCH   7   8
ENDBRANCH   2   7
TORSDOF 12
ENDMDL
MODEL 8
REMARK VINA RESULT:      -3.7      1.426      2.756
REMARK  12 active torsions:
REMARK  status: ('A' for Active; 'I' for Inactive)
REMARK    1  A    between atoms: O_2  and  C_16 
REMARK    2  A    between atoms: N_5  and  C_9 
REMARK    3  A    between atoms: N_6  and  C_13 
REMARK       I    between atoms: N_6  and  C_22 
REMARK    4  A    between atoms: C_9  and  C_12 
REMARK    5  A    between atoms: C_13  and  C_16 
REMARK    6  A    between atoms: C_13  and  C_21 
REMARK    7  A    between atoms: C_19  and  C_24 
REMARK    8  A    between atoms: C_21  and  C_33 
REMARK    9  A    between atoms: C_22  and  C_23 
REMARK   10  A    between atoms: C_27  and  C_30 
REMARK   11  A    between atoms: C_33  and  C_34 
REMARK   12  A    between atoms: C_34  and  C_35 
ROOT
HETATM    1  O   UNL     1      17.266   4.065  93.750  1.00  0.00    -0.350 OA
HETATM    2  N   UNL     1      14.660   2.921  93.773  1.00  0.00     0.147 N 
HETATM    3  C   UNL     1      15.843   2.127  93.414  1.00  0.00     0.283 C 
HETATM    4  C   UNL     1      14.877   4.333  93.429  1.00  0.00     0.283 C 
HETATM    5  C   UNL     1      17.077   2.695  94.111  1.00  0.00     0.178 C 
HETATM    6  C   UNL     1      16.133   4.848  94.124  1.00  0.00     0.178 C 
ENDROOT
BRANCH   2   7
HETATM    7  C   UNL     1      13.467   2.401  93.108  1.00  0.00     0.277 C 
BRANCH   7   8
HETATM    8  C   UNL     1      12.465   3.467  92.823  1.00  0.00     0.011 A 
HETATM    9  C   UNL     1      11.773   4.072  93.873  1.00  0.00    -0.002 A 
HETATM   10  C   UNL     1      10.834   5.069  93.607  1.00  0.00     0.008 A 
HETATM   11  C   UNL     1      10.590   5.461  92.291  1.00  0.00     0.042 A 
HETATM   12  C   UNL     1      11.280   4.858  91.242  1.00  0.00     0.008 A 
HETATM   13  C   UNL     1      12.218   3.861  91.507  1.00  0.00    -0.002 A 
BRANCH  11  14
HETATM   14  C   UNL     1       9.628   6.485  92.018  1.00  0.00    -0.059 C 
HETATM   15  C   UNL     1       8.820   7.346  91.788  1.00  0.00    -0.059 C 
BRANCH  15  16
HETATM   16  C   UNL     1       7.859   8.368  91.516  1.00  0.00     0.042 A 
HETATM   17  C   UNL     1       7.111   8.325  90.338  1.00  0.00     0.008 A 
HETATM   18  C   UNL     1       6.172   9.321  90.074  1.00  0.00     0.005 A 
HETATM   19  C   UNL     1       6.000  10.336  90.991  1.00  0.00     0.056 A 
HETATM   20  C   UNL     1       6.727  10.402  92.161  1.00  0.00     0.005 A 
HETATM   21  C   UNL     1       7.667   9.406  92.427  1.00  0.00     0.008 A 
BRANCH  19  22
HETATM   22  C   UNL     1       5.000  11.399  90.707  1.00  0.00     0.254 C 
HETATM   23  O   UNL     1       3.806  11.110  90.696  1.00  0.00    -0.268 OA
HETATM   24  N   UNL     1       5.510  12.672  90.496  1.00  0.00    -0.335 N 
HETATM   25  HN  UNL     1       6.508  12.840  90.546  1.00  0.00     0.164 HD
BRANCH  24  26
HETATM   26  C   UNL     1       4.667  13.811  90.234  1.00  0.00     0.166 C 
BRANCH  26  27
HETATM   27  C   UNL     1       3.767  13.614  89.008  1.00  0.00     0.138 C 
HETATM   28  C   UNL     1       4.563  13.331  87.739  1.00  0.00     0.034 C 
BRANCH  27  29
HETATM   29  O   UNL     1       2.870  12.529  89.243  1.00  0.00    -0.383 OA
HETATM   30  H   UNL     1       2.000  12.897  89.473  1.00  0.00     0.210 HD
ENDBRANCH  27  29
ENDBRANCH  26  27
BRANCH  26  31
HETATM   31  C   UNL     1       3.842  14.079  91.489  1.00  0.00     0.181 C 
HETATM   32  O   UNL     1       4.145  14.934  92.319  1.00  0.00    -0.294 OA
BRANCH  31  33
HETATM   33  C   UNL     1       2.278  14.321  91.142  1.00  0.00     0.138 C 
BRANCH  33  34
HETATM   34  C   UNL     1       1.662  13.879  92.334  1.00  0.00     0.208 C 
HETATM   35  O   UNL     1       1.247  14.744  93.071  1.00  0.00    -0.289 OA
BRANCH  34  36
HETATM   36  C   UNL     1       1.189  12.644  92.683  1.00  0.00     0.194 C 
HETATM   37  O   UNL     1       1.877  11.457  92.957  1.00  0.00    -0.185 OA
ENDBRANCH  34  36
ENDBRANCH  33  34
ENDBRANCH  31  33
ENDBRANCH  26  31
ENDBRANCH  24  26
ENDBRANCH  19  22
ENDBRANCH  15  16
ENDBRANCH  11  14
ENDBRANCH   7   8
ENDBRANCH   2   7
TORSDOF 12
ENDMDL
MODEL 9
REMARK VINA RESULT:      -3.3      2.239     12.846
REMARK  12 active torsions:
REMARK  status: ('A' for Active; 'I' for Inactive)
REMARK    1  A    between atoms: O_2  and  C_16 
REMARK    2  A    between atoms: N_5  and  C_9 
REMARK    3  A    between atoms: N_6  and  C_13 
REMARK       I    between atoms: N_6  and  C_22 
REMARK    4  A    between atoms: C_9  and  C_12 
REMARK    5  A    between atoms: C_13  and  C_16 
REMARK    6  A    between atoms: C_13  and  C_21 
REMARK    7  A    between atoms: C_19  and  C_24 
REMARK    8  A    between atoms: C_21  and  C_33 
REMARK    9  A    between atoms: C_22  and  C_23 
REMARK   10  A    between atoms: C_27  and  C_30 
REMARK   11  A    between atoms: C_33  and  C_34 
REMARK   12  A    between atoms: C_34  and  C_35 
ROOT
HETATM    1  O   UNL     1       3.158  15.020  91.589  1.00  0.00    -0.350 OA
HETATM    2  N   UNL     1       1.837  13.068  93.185  1.00  0.00     0.147 N 
HETATM    3  C   UNL     1       2.680  14.110  93.787  1.00  0.00     0.283 C 
HETATM    4  C   UNL     1       2.310  12.760  91.829  1.00  0.00     0.283 C 
HETATM    5  C   UNL     1       2.686  15.350  92.896  1.00  0.00     0.178 C 
HETATM    6  C   UNL     1       2.325  14.029  90.984  1.00  0.00     0.178 C 
ENDROOT
BRANCH   2   7
HETATM    7  C   UNL     1       1.825  11.867  94.018  1.00  0.00     0.277 C 
BRANCH   7   8
HETATM    8  C   UNL     1       2.923  10.921  93.666  1.00  0.00     0.011 A 
HETATM    9  C   UNL     1       2.626   9.717  93.027  1.00  0.00    -0.002 A 
HETATM   10  C   UNL     1       3.652   8.830  92.699  1.00  0.00     0.008 A 
HETATM   11  C   UNL     1       4.973   9.150  93.008  1.00  0.00     0.042 A 
HETATM   12  C   UNL     1       5.271  10.352  93.646  1.00  0.00     0.008 A 
HETATM   13  C   UNL     1       4.245  11.239  93.975  1.00  0.00    -0.002 A 
BRANCH  11  14
HETATM   14  C   UNL     1       6.026   8.241  92.670  1.00  0.00    -0.059 C 
HETATM   15  C   UNL     1       6.909   7.477  92.386  1.00  0.00    -0.059 C 
BRANCH  15  16
HETATM   16  C   UNL     1       7.960   6.569  92.047  1.00  0.00     0.042 A 
HETATM   17  C   UNL     1       9.072   6.448  92.881  1.00  0.00     0.008 A 
HETATM   18  C   UNL     1      10.096   5.560  92.552  1.00  0.00     0.005 A 
HETATM   19  C   UNL     1       9.985   4.813  91.398  1.00  0.00     0.056 A 
HETATM   20  C   UNL     1       8.896   4.914  90.557  1.00  0.00     0.005 A 
HETATM   21  C   UNL     1       7.872   5.802  90.885  1.00  0.00     0.008 A 
BRANCH  19  22
HETATM   22  C   UNL     1      11.077   3.868  91.046  1.00  0.00     0.254 C 
HETATM   23  O   UNL     1      11.000   3.224  90.003  1.00  0.00    -0.268 OA
HETATM   24  N   UNL     1      12.137   3.805  91.939  1.00  0.00    -0.335 N 
HETATM   25  HN  UNL     1      12.144   4.386  92.770  1.00  0.00     0.164 HD
BRANCH  24  26
HETATM   26  C   UNL     1      13.281   2.956  91.726  1.00  0.00     0.166 C 
BRANCH  26  27
HETATM   27  C   UNL     1      14.412   3.663  90.969  1.00  0.00     0.138 C 
HETATM   28  C   UNL     1      14.579   3.139  89.546  1.00  0.00     0.034 C 
BRANCH  27  29
HETATM   29  O   UNL     1      14.150   5.065  90.919  1.00  0.00    -0.383 OA
HETATM   30  H   UNL     1      14.475   5.406  90.068  1.00  0.00     0.210 HD
ENDBRANCH  27  29
ENDBRANCH  26  27
BRANCH  26  31
HETATM   31  C   UNL     1      13.753   2.459  93.089  1.00  0.00     0.181 C 
HETATM   32  O   UNL     1      14.657   1.637  93.226  1.00  0.00    -0.294 OA
BRANCH  31  33
HETATM   33  C   UNL     1      14.101   3.685  94.090  1.00  0.00     0.138 C 
BRANCH  33  34
HETATM   34  C   UNL     1      15.496   3.806  93.900  1.00  0.00     0.208 C 
HETATM   35  O   UNL     1      15.923   4.932  93.792  1.00  0.00    -0.289 OA
BRANCH  34  36
HETATM   36  C   UNL     1      16.500   2.898  94.099  1.00  0.00     0.194 C 
HETATM   37  O   UNL     1      17.888   3.075  94.124  1.00  0.00    -0.185 OA
ENDBRANCH  34  36
ENDBRANCH  33  34
ENDBRANCH  31  33
ENDBRANCH  26  31
ENDBRANCH  24  26
ENDBRANCH  19  22
ENDBRANCH  15  16
ENDBRANCH  11  14
ENDBRANCH   7   8
ENDBRANCH   2   7
TORSDOF 12
ENDMDL
