MODEL 1
REMARK VINA RESULT:      -7.6      0.000      0.000
REMARK  9 active torsions:
REMARK  status: ('A' for Active; 'I' for Inactive)
REMARK    1  A    between atoms: N_3  and  C_6 
REMARK    2  A    between atoms: C_6  and  C_9 
REMARK    3  A    between atoms: C_14  and  C_17 
REMARK       I    between atoms: N_26  and  C_15 
REMARK    4  A    between atoms: C_15  and  C_16 
REMARK    5  A    between atoms: C_20  and  C_23 
REMARK    6  A    between atoms: OG1_24  and  CB_28 
REMARK    7  A    between atoms: N_26  and  CA_27 
REMARK    8  A    between atoms: CA_27  and  CB_28 
REMARK    9  A    between atoms: CA_27  and  C_30 
ROOT
HETATM    1  O   UNK A   0       1.910   8.035  87.835  1.00  0.00    -0.388 OA
HETATM    2  N   UNK A   0       4.709   7.543  87.688  1.00  0.00     0.096 N 
HETATM    3  C   UNK A   0       4.174   8.908  87.795  1.00  0.00     0.299 C 
HETATM    4  C   UNK A   0       3.739   6.674  87.008  1.00  0.00     0.299 C 
HETATM    5  C   UNK A   0       2.833   8.881  88.524  1.00  0.00     0.198 C 
HETATM    6  C   UNK A   0       2.409   6.699  87.754  1.00  0.00     0.198 C 
ENDROOT
BRANCH   2   7
HETATM    7  C   UNK A   0       5.990   7.544  86.983  1.00  0.00     0.311 C 
BRANCH   7   8
HETATM    8  C   UNK A   0       7.086   6.943  87.796  1.00  0.00    -0.030 A 
HETATM    9  C   UNK A   0       8.329   6.694  87.213  1.00  0.00     0.010 A 
HETATM   10  C   UNK A   0       9.355   6.131  87.972  1.00  0.00     0.021 A 
HETATM   11  C   UNK A   0       9.137   5.818  89.313  1.00  0.00     0.018 A 
HETATM   12  C   UNK A   0       7.896   6.067  89.896  1.00  0.00     0.021 A 
HETATM   13  C   UNK A   0       6.870   6.630  89.138  1.00  0.00     0.010 A 
BRANCH  11  14
HETATM   14  C   UNK A   0      10.190   5.242  90.092  1.00  0.00    -0.061 C 
HETATM   15  C   UNK A   0      11.075   4.758  90.746  1.00  0.00    -0.061 C 
BRANCH  15  16
HETATM   16  C   UNK A   0      12.127   4.183  91.525  1.00  0.00     0.018 A 
HETATM   17  C   UNK A   0      11.890   3.808  92.847  1.00  0.00     0.022 A 
HETATM   18  C   UNK A   0      12.916   3.244  93.606  1.00  0.00     0.018 A 
HETATM   19  C   UNK A   0      14.155   3.068  93.025  1.00  0.00     0.032 A 
HETATM   20  C   UNK A   0      14.415   3.431  91.721  1.00  0.00     0.018 A 
HETATM   21  C   UNK A   0      13.389   3.995  90.961  1.00  0.00     0.022 A 
BRANCH  19  22
HETATM   22  C   UNK A   0      15.248   2.470  93.834  1.00  0.00     0.252 C 
HETATM   23  O   UNK A   0      16.402   2.851  93.658  1.00  0.00    -0.268 OA
ENDBRANCH  19  22
ENDBRANCH  15  16
ENDBRANCH  11  14
ENDBRANCH   7   8
ENDBRANCH   2   7
TORSDOF 9
ENDMDL
MODEL 2
REMARK VINA RESULT:      -7.5      0.164      1.021
REMARK  9 active torsions:
REMARK  status: ('A' for Active; 'I' for Inactive)
REMARK    1  A    between atoms: N_3  and  C_6 
REMARK    2  A    between atoms: C_6  and  C_9 
REMARK    3  A    between atoms: C_14  and  C_17 
REMARK       I    between atoms: N_26  and  C_15 
REMARK    4  A    between atoms: C_15  and  C_16 
REMARK    5  A    between atoms: C_20  and  C_23 
REMARK    6  A    between atoms: OG1_24  and  CB_28 
REMARK    7  A    between atoms: N_26  and  CA_27 
REMARK    8  A    between atoms: CA_27  and  CB_28 
REMARK    9  A    between atoms: CA_27  and  C_30 
ROOT
HETATM    1  O   UNK A   0       1.737   8.033  87.866  1.00  0.00    -0.388 OA
HETATM    2  N   UNK A   0       4.538   7.556  87.694  1.00  0.00     0.096 N 
HETATM    3  C   UNK A   0       3.997   8.917  87.820  1.00  0.00     0.299 C 
HETATM    4  C   UNK A   0       3.567   6.690  87.011  1.00  0.00     0.299 C 
HETATM    5  C   UNK A   0       2.661   8.875  88.558  1.00  0.00     0.198 C 
HETATM    6  C   UNK A   0       2.242   6.701  87.766  1.00  0.00     0.198 C 
ENDROOT
BRANCH   2   7
HETATM    7  C   UNK A   0       5.814   7.571  86.980  1.00  0.00     0.311 C 
BRANCH   7   8
HETATM    8  C   UNK A   0       6.919   6.968  87.779  1.00  0.00    -0.030 A 
HETATM    9  C   UNK A   0       8.156   6.723  87.183  1.00  0.00     0.010 A 
HETATM   10  C   UNK A   0       9.190   6.156  87.929  1.00  0.00     0.021 A 
HETATM   11  C   UNK A   0       8.986   5.837  89.271  1.00  0.00     0.018 A 
HETATM   12  C   UNK A   0       7.750   6.081  89.867  1.00  0.00     0.021 A 
HETATM   13  C   UNK A   0       6.716   6.647  89.122  1.00  0.00     0.010 A 
BRANCH  11  14
HETATM   14  C   UNK A   0      10.047   5.258  90.036  1.00  0.00    -0.061 C 
HETATM   15  C   UNK A   0      10.938   4.771  90.680  1.00  0.00    -0.061 C 
BRANCH  15  16
HETATM   16  C   UNK A   0      11.998   4.191  91.444  1.00  0.00     0.018 A 
HETATM   17  C   UNK A   0      13.259   4.026  90.871  1.00  0.00     0.022 A 
HETATM   18  C   UNK A   0      14.294   3.463  91.618  1.00  0.00     0.018 A 
HETATM   19  C   UNK A   0      14.045   3.079  92.920  1.00  0.00     0.032 A 
HETATM   20  C   UNK A   0      12.807   3.232  93.508  1.00  0.00     0.018 A 
HETATM   21  C   UNK A   0      11.772   3.795  92.762  1.00  0.00     0.022 A 
BRANCH  19  22
HETATM   22  C   UNK A   0      15.148   2.478  93.714  1.00  0.00     0.252 C 
HETATM   23  O   UNK A   0      16.303   2.842  93.509  1.00  0.00    -0.268 OA
ENDBRANCH  19  22
ENDBRANCH  15  16
ENDBRANCH  11  14
ENDBRANCH   7   8
ENDBRANCH   2   7
TORSDOF 9
ENDMDL
MODEL 3
REMARK VINA RESULT:      -7.5      0.153      1.018
REMARK  9 active torsions:
REMARK  status: ('A' for Active; 'I' for Inactive)
REMARK    1  A    between atoms: N_3  and  C_6 
REMARK    2  A    between atoms: C_6  and  C_9 
REMARK    3  A    between atoms: C_14  and  C_17 
REMARK       I    between atoms: N_26  and  C_15 
REMARK    4  A    between atoms: C_15  and  C_16 
REMARK    5  A    between atoms: C_20  and  C_23 
REMARK    6  A    between atoms: OG1_24  and  CB_28 
REMARK    7  A    between atoms: N_26  and  CA_27 
REMARK    8  A    between atoms: CA_27  and  CB_28 
REMARK    9  A    between atoms: CA_27  and  C_30 
ROOT
HETATM    1  O   UNK A   0       1.761   7.958  87.821  1.00  0.00    -0.388 OA
HETATM    2  N   UNK A   0       4.576   7.563  87.679  1.00  0.00     0.096 N 
HETATM    3  C   UNK A   0       3.994   8.908  87.783  1.00  0.00     0.299 C 
HETATM    4  C   UNK A   0       3.637   6.659  86.999  1.00  0.00     0.299 C 
HETATM    5  C   UNK A   0       2.653   8.837  88.509  1.00  0.00     0.198 C 
HETATM    6  C   UNK A   0       2.306   6.641  87.743  1.00  0.00     0.198 C 
ENDROOT
BRANCH   2   7
HETATM    7  C   UNK A   0       5.857   7.606  86.976  1.00  0.00     0.311 C 
BRANCH   7   8
HETATM    8  C   UNK A   0       6.961   6.997  87.771  1.00  0.00    -0.030 A 
HETATM    9  C   UNK A   0       6.736   6.605  89.091  1.00  0.00     0.010 A 
HETATM   10  C   UNK A   0       7.769   6.037  89.836  1.00  0.00     0.021 A 
HETATM   11  C   UNK A   0       9.026   5.858  89.260  1.00  0.00     0.018 A 
HETATM   12  C   UNK A   0       9.252   6.248  87.941  1.00  0.00     0.021 A 
HETATM   13  C   UNK A   0       8.220   6.818  87.196  1.00  0.00     0.010 A 
BRANCH  11  14
HETATM   14  C   UNK A   0      10.085   5.273  90.023  1.00  0.00    -0.061 C 
HETATM   15  C   UNK A   0      10.975   4.781  90.664  1.00  0.00    -0.061 C 
BRANCH  15  16
HETATM   16  C   UNK A   0      12.034   4.197  91.427  1.00  0.00     0.018 A 
HETATM   17  C   UNK A   0      11.812   3.820  92.752  1.00  0.00     0.022 A 
HETATM   18  C   UNK A   0      12.844   3.248  93.495  1.00  0.00     0.018 A 
HETATM   19  C   UNK A   0      14.074   3.065  92.898  1.00  0.00     0.032 A 
HETATM   20  C   UNK A   0      14.319   3.429  91.590  1.00  0.00     0.018 A 
HETATM   21  C   UNK A   0      13.287   4.002  90.846  1.00  0.00     0.022 A 
BRANCH  19  22
HETATM   22  C   UNK A   0      15.174   2.457  93.691  1.00  0.00     0.252 C 
HETATM   23  O   UNK A   0      16.260   3.029  93.747  1.00  0.00    -0.268 OA
ENDBRANCH  19  22
ENDBRANCH  15  16
ENDBRANCH  11  14
ENDBRANCH   7   8
ENDBRANCH   2   7
TORSDOF 9
ENDMDL
MODEL 4
REMARK VINA RESULT:      -6.8      1.691      2.273
REMARK  9 active torsions:
REMARK  status: ('A' for Active; 'I' for Inactive)
REMARK    1  A    between atoms: N_3  and  C_6 
REMARK    2  A    between atoms: C_6  and  C_9 
REMARK    3  A    between atoms: C_14  and  C_17 
REMARK       I    between atoms: N_26  and  C_15 
REMARK    4  A    between atoms: C_15  and  C_16 
REMARK    5  A    between atoms: C_20  and  C_23 
REMARK    6  A    between atoms: OG1_24  and  CB_28 
REMARK    7  A    between atoms: N_26  and  CA_27 
REMARK    8  A    between atoms: CA_27  and  CB_28 
REMARK    9  A    between atoms: CA_27  and  C_30 
ROOT
HETATM    1  O   UNK A   0       3.043  11.684  89.547  1.00  0.00    -0.388 OA
HETATM    2  N   UNK A   0       4.655   9.515  88.652  1.00  0.00     0.096 N 
HETATM    3  C   UNK A   0       3.786  10.258  87.729  1.00  0.00     0.299 C 
HETATM    4  C   UNK A   0       4.090   9.545  90.008  1.00  0.00     0.299 C 
HETATM    5  C   UNK A   0       3.601  11.688  88.231  1.00  0.00     0.198 C 
HETATM    6  C   UNK A   0       3.897  10.990  90.457  1.00  0.00     0.198 C 
ENDROOT
BRANCH   2   7
HETATM    7  C   UNK A   0       4.838   8.138  88.195  1.00  0.00     0.311 C 
BRANCH   7   8
HETATM    8  C   UNK A   0       6.040   7.495  88.798  1.00  0.00    -0.030 A 
HETATM    9  C   UNK A   0       5.929   6.245  89.408  1.00  0.00     0.010 A 
HETATM   10  C   UNK A   0       7.053   5.644  89.974  1.00  0.00     0.021 A 
HETATM   11  C   UNK A   0       8.287   6.291  89.927  1.00  0.00     0.018 A 
HETATM   12  C   UNK A   0       8.399   7.539  89.318  1.00  0.00     0.021 A 
HETATM   13  C   UNK A   0       7.275   8.142  88.752  1.00  0.00     0.010 A 
BRANCH  11  14
HETATM   14  C   UNK A   0       9.441   5.673  90.506  1.00  0.00    -0.061 C 
HETATM   15  C   UNK A   0      10.410   5.153  90.992  1.00  0.00    -0.061 C 
BRANCH  15  16
HETATM   16  C   UNK A   0      11.562   4.534  91.569  1.00  0.00     0.018 A 
HETATM   17  C   UNK A   0      11.537   4.120  92.901  1.00  0.00     0.022 A 
HETATM   18  C   UNK A   0      12.661   3.514  93.463  1.00  0.00     0.018 A 
HETATM   19  C   UNK A   0      13.783   3.337  92.682  1.00  0.00     0.032 A 
HETATM   20  C   UNK A   0      13.834   3.738  91.363  1.00  0.00     0.018 A 
HETATM   21  C   UNK A   0      12.710   4.344  90.800  1.00  0.00     0.022 A 
BRANCH  19  22
HETATM   22  C   UNK A   0      14.981   2.693  93.282  1.00  0.00     0.252 C 
HETATM   23  O   UNK A   0      14.829   1.812  94.124  1.00  0.00    -0.268 OA
ENDBRANCH  19  22
ENDBRANCH  15  16
ENDBRANCH  11  14
ENDBRANCH   7   8
ENDBRANCH   2   7
TORSDOF 9
ENDMDL
MODEL 5
REMARK VINA RESULT:      -6.7      3.946     10.462
REMARK  9 active torsions:
REMARK  status: ('A' for Active; 'I' for Inactive)
REMARK    1  A    between atoms: N_3  and  C_6 
REMARK    2  A    between atoms: C_6  and  C_9 
REMARK    3  A    between atoms: C_14  and  C_17 
REMARK       I    between atoms: N_26  and  C_15 
REMARK    4  A    between atoms: C_15  and  C_16 
REMARK    5  A    between atoms: C_20  and  C_23 
REMARK    6  A    between atoms: OG1_24  and  CB_28 
REMARK    7  A    between atoms: N_26  and  CA_27 
REMARK    8  A    between atoms: CA_27  and  CB_28 
REMARK    9  A    between atoms: CA_27  and  C_30 
ROOT
HETATM    1  O   UNK A   0      14.629   3.334  92.092  1.00  0.00    -0.388 OA
HETATM    2  N   UNK A   0      11.920   4.175  92.320  1.00  0.00     0.096 N 
HETATM    3  C   UNK A   0      12.549   3.328  93.343  1.00  0.00     0.299 C 
HETATM    4  C   UNK A   0      12.541   3.930  91.011  1.00  0.00     0.299 C 
HETATM    5  C   UNK A   0      14.053   3.588  93.374  1.00  0.00     0.198 C 
HETATM    6  C   UNK A   0      14.044   4.175  91.097  1.00  0.00     0.198 C 
ENDROOT
BRANCH   2   7
HETATM    7  C   UNK A   0      10.479   3.935  92.265  1.00  0.00     0.311 C 
BRANCH   7   8
HETATM    8  C   UNK A   0       9.707   5.175  91.964  1.00  0.00    -0.030 A 
HETATM    9  C   UNK A   0       8.660   5.137  91.043  1.00  0.00     0.010 A 
HETATM   10  C   UNK A   0       7.939   6.297  90.759  1.00  0.00     0.021 A 
HETATM   11  C   UNK A   0       8.264   7.493  91.399  1.00  0.00     0.018 A 
HETATM   12  C   UNK A   0       9.309   7.531  92.319  1.00  0.00     0.021 A 
HETATM   13  C   UNK A   0      10.031   6.372  92.603  1.00  0.00     0.010 A 
BRANCH  11  14
HETATM   14  C   UNK A   0       7.523   8.682  91.109  1.00  0.00    -0.061 C 
HETATM   15  C   UNK A   0       6.901   9.682  90.866  1.00  0.00    -0.061 C 
BRANCH  15  16
HETATM   16  C   UNK A   0       6.161  10.870  90.577  1.00  0.00     0.018 A 
HETATM   17  C   UNK A   0       6.326  11.512  89.349  1.00  0.00     0.022 A 
HETATM   18  C   UNK A   0       5.602  12.670  89.066  1.00  0.00     0.018 A 
HETATM   19  C   UNK A   0       4.730  13.160  90.015  1.00  0.00     0.032 A 
HETATM   20  C   UNK A   0       4.549  12.544  91.236  1.00  0.00     0.018 A 
HETATM   21  C   UNK A   0       5.272  11.386  91.521  1.00  0.00     0.022 A 
BRANCH  19  22
HETATM   22  C   UNK A   0       3.960  14.395  89.714  1.00  0.00     0.252 C 
HETATM   23  O   UNK A   0       4.548  15.473  89.673  1.00  0.00    -0.268 OA
ENDBRANCH  19  22
ENDBRANCH  15  16
ENDBRANCH  11  14
ENDBRANCH   7   8
ENDBRANCH   2   7
TORSDOF 9
ENDMDL
MODEL 6
REMARK VINA RESULT:      -6.6      3.941     10.417
REMARK  9 active torsions:
REMARK  status: ('A' for Active; 'I' for Inactive)
REMARK    1  A    between atoms: N_3  and  C_6 
REMARK    2  A    between atoms: C_6  and  C_9 
REMARK    3  A    between atoms: C_14  and  C_17 
REMARK       I    between atoms: N_26  and  C_15 
REMARK    4  A    between atoms: C_15  and  C_16 
REMARK    5  A    between atoms: C_20  and  C_23 
REMARK    6  A    between atoms: OG1_24  and  CB_28 
REMARK    7  A    between atoms: N_26  and  CA_27 
REMARK    8  A    between atoms: CA_27  and  CB_28 
REMARK    9  A    between atoms: CA_27  and  C_30 
ROOT
HETATM    1  O   UNK A   0      14.635   3.391  92.155  1.00  0.00    -0.388 OA
HETATM    2  N   UNK A   0      11.908   4.191  92.303  1.00  0.00     0.096 N 
HETATM    3  C   UNK A   0      12.514   3.336  93.333  1.00  0.00     0.299 C 
HETATM    4  C   UNK A   0      12.577   3.976  91.013  1.00  0.00     0.299 C 
HETATM    5  C   UNK A   0      14.012   3.616  93.421  1.00  0.00     0.198 C 
HETATM    6  C   UNK A   0      14.072   4.240  91.155  1.00  0.00     0.198 C 
ENDROOT
BRANCH   2   7
HETATM    7  C   UNK A   0      10.473   3.932  92.194  1.00  0.00     0.311 C 
BRANCH   7   8
HETATM    8  C   UNK A   0       9.692   5.170  91.913  1.00  0.00    -0.030 A 
HETATM    9  C   UNK A   0       8.799   5.201  90.841  1.00  0.00     0.010 A 
HETATM   10  C   UNK A   0       8.069   6.360  90.576  1.00  0.00     0.021 A 
HETATM   11  C   UNK A   0       8.231   7.485  91.384  1.00  0.00     0.018 A 
HETATM   12  C   UNK A   0       9.122   7.455  92.454  1.00  0.00     0.021 A 
HETATM   13  C   UNK A   0       9.853   6.297  92.719  1.00  0.00     0.010 A 
BRANCH  11  14
HETATM   14  C   UNK A   0       7.481   8.673  91.112  1.00  0.00    -0.061 C 
HETATM   15  C   UNK A   0       6.850   9.671  90.884  1.00  0.00    -0.061 C 
BRANCH  15  16
HETATM   16  C   UNK A   0       6.099  10.857  90.613  1.00  0.00     0.018 A 
HETATM   17  C   UNK A   0       5.234  11.370  91.580  1.00  0.00     0.022 A 
HETATM   18  C   UNK A   0       4.504  12.528  91.317  1.00  0.00     0.018 A 
HETATM   19  C   UNK A   0       4.655  13.148  90.094  1.00  0.00     0.032 A 
HETATM   20  C   UNK A   0       5.504  12.661  89.122  1.00  0.00     0.018 A 
HETATM   21  C   UNK A   0       6.234  11.502  89.384  1.00  0.00     0.022 A 
BRANCH  19  22
HETATM   22  C   UNK A   0       3.876  14.382  89.813  1.00  0.00     0.252 C 
HETATM   23  O   UNK A   0       4.457  15.464  89.778  1.00  0.00    -0.268 OA
ENDBRANCH  19  22
ENDBRANCH  15  16
ENDBRANCH  11  14
ENDBRANCH   7   8
ENDBRANCH   2   7
TORSDOF 9
ENDMDL
MODEL 7
REMARK VINA RESULT:      -6.5      1.763      2.604
REMARK  9 active torsions:
REMARK  status: ('A' for Active; 'I' for Inactive)
REMARK    1  A    between atoms: N_3  and  C_6 
REMARK    2  A    between atoms: C_6  and  C_9 
REMARK    3  A    between atoms: C_14  and  C_17 
REMARK       I    between atoms: N_26  and  C_15 
REMARK    4  A    between atoms: C_15  and  C_16 
REMARK    5  A    between atoms: C_20  and  C_23 
REMARK    6  A    between atoms: OG1_24  and  CB_28 
REMARK    7  A    between atoms: N_26  and  CA_27 
REMARK    8  A    between atoms: CA_27  and  CB_28 
REMARK    9  A    between atoms: CA_27  and  C_30 
ROOT
HETATM    1  O   UNK A   0       3.970  11.676  88.822  1.00  0.00    -0.388 OA
HETATM    2  N   UNK A   0       4.630   8.937  89.222  1.00  0.00     0.096 N 
HETATM    3  C   UNK A   0       3.374   9.337  88.573  1.00  0.00     0.299 C 
HETATM    4  C   UNK A   0       5.064   9.978  90.164  1.00  0.00     0.299 C 
HETATM    5  C   UNK A   0       3.557  10.685  87.880  1.00  0.00     0.198 C 
HETATM    6  C   UNK A   0       5.206  11.310  89.435  1.00  0.00     0.198 C 
ENDROOT
BRANCH   2   7
HETATM    7  C   UNK A   0       4.475   7.652  89.902  1.00  0.00     0.311 C 
BRANCH   7   8
HETATM    8  C   UNK A   0       5.784   7.052  90.288  1.00  0.00    -0.030 A 
HETATM    9  C   UNK A   0       6.123   6.930  91.636  1.00  0.00     0.010 A 
HETATM   10  C   UNK A   0       7.349   6.371  91.999  1.00  0.00     0.021 A 
HETATM   11  C   UNK A   0       8.233   5.933  91.014  1.00  0.00     0.018 A 
HETATM   12  C   UNK A   0       7.895   6.054  89.667  1.00  0.00     0.021 A 
HETATM   13  C   UNK A   0       6.670   6.614  89.304  1.00  0.00     0.010 A 
BRANCH  11  14
HETATM   14  C   UNK A   0       9.489   5.358  91.386  1.00  0.00    -0.061 C 
HETATM   15  C   UNK A   0      10.545   4.874  91.698  1.00  0.00    -0.061 C 
BRANCH  15  16
HETATM   16  C   UNK A   0      11.800   4.300  92.070  1.00  0.00     0.018 A 
HETATM   17  C   UNK A   0      11.954   3.717  93.328  1.00  0.00     0.022 A 
HETATM   18  C   UNK A   0      13.178   3.155  93.690  1.00  0.00     0.018 A 
HETATM   19  C   UNK A   0      14.219   3.187  92.786  1.00  0.00     0.032 A 
HETATM   20  C   UNK A   0      14.093   3.757  91.536  1.00  0.00     0.018 A 
HETATM   21  C   UNK A   0      12.869   4.320  91.174  1.00  0.00     0.022 A 
BRANCH  19  22
HETATM   22  C   UNK A   0      15.524   2.589  93.172  1.00  0.00     0.252 C 
HETATM   23  O   UNK A   0      16.413   3.318  93.605  1.00  0.00    -0.268 OA
ENDBRANCH  19  22
ENDBRANCH  15  16
ENDBRANCH  11  14
ENDBRANCH   7   8
ENDBRANCH   2   7
TORSDOF 9
ENDMDL
MODEL 8
REMARK VINA RESULT:      -6.5      1.730      2.619
REMARK  9 active torsions:
REMARK  status: ('A' for Active; 'I' for Inactive)
REMARK    1  A    between atoms: N_3  and  C_6 
REMARK    2  A    between atoms: C_6  and  C_9 
REMARK    3  A    between atoms: C_14  and  C_17 
REMARK       I    between atoms: N_26  and  C_15 
REMARK    4  A    between atoms: C_15  and  C_16 
REMARK    5  A    between atoms: C_20  and  C_23 
REMARK    6  A    between atoms: OG1_24  and  CB_28 
REMARK    7  A    between atoms: N_26  and  CA_27 
REMARK    8  A    between atoms: CA_27  and  CB_28 
REMARK    9  A    between atoms: CA_27  and  C_30 
ROOT
HETATM    1  O   UNK A   0       2.777   9.189  87.795  1.00  0.00    -0.388 OA
HETATM    2  N   UNK A   0       4.166   7.723  89.801  1.00  0.00     0.096 N 
HETATM    3  C   UNK A   0       2.856   7.286  89.299  1.00  0.00     0.299 C 
HETATM    4  C   UNK A   0       4.283   9.184  89.697  1.00  0.00     0.299 C 
HETATM    5  C   UNK A   0       2.666   7.766  87.863  1.00  0.00     0.198 C 
HETATM    6  C   UNK A   0       4.059   9.620  88.253  1.00  0.00     0.198 C 
ENDROOT
BRANCH   2   7
HETATM    7  C   UNK A   0       4.365   7.283  91.181  1.00  0.00     0.311 C 
BRANCH   7   8
HETATM    8  C   UNK A   0       5.727   6.720  91.407  1.00  0.00    -0.030 A 
HETATM    9  C   UNK A   0       6.284   6.735  92.686  1.00  0.00     0.010 A 
HETATM   10  C   UNK A   0       7.559   6.212  92.898  1.00  0.00     0.021 A 
HETATM   11  C   UNK A   0       8.276   5.671  91.831  1.00  0.00     0.018 A 
HETATM   12  C   UNK A   0       7.721   5.655  90.553  1.00  0.00     0.021 A 
HETATM   13  C   UNK A   0       6.446   6.180  90.340  1.00  0.00     0.010 A 
BRANCH  11  14
HETATM   14  C   UNK A   0       9.583   5.132  92.049  1.00  0.00    -0.061 C 
HETATM   15  C   UNK A   0      10.682   4.679  92.232  1.00  0.00    -0.061 C 
BRANCH  15  16
HETATM   16  C   UNK A   0      11.988   4.141  92.451  1.00  0.00     0.018 A 
HETATM   17  C   UNK A   0      12.280   3.484  93.646  1.00  0.00     0.022 A 
HETATM   18  C   UNK A   0      13.554   2.957  93.858  1.00  0.00     0.018 A 
HETATM   19  C   UNK A   0      14.506   3.097  92.871  1.00  0.00     0.032 A 
HETATM   20  C   UNK A   0      14.243   3.743  91.681  1.00  0.00     0.018 A 
HETATM   21  C   UNK A   0      12.969   4.271  91.468  1.00  0.00     0.022 A 
BRANCH  19  22
HETATM   22  C   UNK A   0      15.863   2.537  93.098  1.00  0.00     0.252 C 
HETATM   23  O   UNK A   0      16.649   3.143  93.823  1.00  0.00    -0.268 OA
ENDBRANCH  19  22
ENDBRANCH  15  16
ENDBRANCH  11  14
ENDBRANCH   7   8
ENDBRANCH   2   7
TORSDOF 9
ENDMDL
MODEL 9
REMARK VINA RESULT:      -6.4      4.859     10.283
REMARK  9 active torsions:
REMARK  status: ('A' for Active; 'I' for Inactive)
REMARK    1  A    between atoms: N_3  and  C_6 
REMARK    2  A    between atoms: C_6  and  C_9 
REMARK    3  A    between atoms: C_14  and  C_17 
REMARK       I    between atoms: N_26  and  C_15 
REMARK    4  A    between atoms: C_15  and  C_16 
REMARK    5  A    between atoms: C_20  and  C_23 
REMARK    6  A    between atoms: OG1_24  and  CB_28 
REMARK    7  A    between atoms: N_26  and  CA_27 
REMARK    8  A    between atoms: CA_27  and  CB_28 
REMARK    9  A    between atoms: CA_27  and  C_30 
ROOT
HETATM    1  O   UNK A   0      11.298   3.996  88.930  1.00  0.00    -0.388 OA
HETATM    2  N   UNK A   0       9.456   5.831  87.771  1.00  0.00     0.096 N 
HETATM    3  C   UNK A   0      10.195   4.862  86.949  1.00  0.00     0.299 C 
HETATM    4  C   UNK A   0      10.238   6.177  88.966  1.00  0.00     0.299 C 
HETATM    5  C   UNK A   0      10.532   3.628  87.782  1.00  0.00     0.198 C 
HETATM    6  C   UNK A   0      10.574   4.913  89.750  1.00  0.00     0.198 C 
ENDROOT
BRANCH   2   7
HETATM    7  C   UNK A   0       9.133   7.027  86.996  1.00  0.00     0.311 C 
BRANCH   7   8
HETATM    8  C   UNK A   0       8.351   8.021  87.785  1.00  0.00    -0.030 A 
HETATM    9  C   UNK A   0       8.932   9.237  88.145  1.00  0.00     0.010 A 
HETATM   10  C   UNK A   0       8.202  10.167  88.885  1.00  0.00     0.021 A 
HETATM   11  C   UNK A   0       6.891   9.881  89.264  1.00  0.00     0.018 A 
HETATM   12  C   UNK A   0       6.309   8.666  88.905  1.00  0.00     0.021 A 
HETATM   13  C   UNK A   0       7.039   7.736  88.165  1.00  0.00     0.010 A 
BRANCH  11  14
HETATM   14  C   UNK A   0       6.141  10.835  90.022  1.00  0.00    -0.061 C 
HETATM   15  C   UNK A   0       5.512  11.638  90.658  1.00  0.00    -0.061 C 
BRANCH  15  16
HETATM   16  C   UNK A   0       4.763  12.593  91.414  1.00  0.00     0.018 A 
HETATM   17  C   UNK A   0       4.524  13.864  90.891  1.00  0.00     0.022 A 
HETATM   18  C   UNK A   0       3.791  14.794  91.628  1.00  0.00     0.018 A 
HETATM   19  C   UNK A   0       3.313  14.432  92.870  1.00  0.00     0.032 A 
HETATM   20  C   UNK A   0       3.535  13.182  93.409  1.00  0.00     0.018 A 
HETATM   21  C   UNK A   0       4.268  12.252  92.673  1.00  0.00     0.022 A 
BRANCH  19  22
HETATM   22  C   UNK A   0       2.533  15.424  93.655  1.00  0.00     0.252 C 
HETATM   23  O   UNK A   0       1.353  15.617  93.374  1.00  0.00    -0.268 OA
ENDBRANCH  19  22
ENDBRANCH  15  16
ENDBRANCH  11  14
ENDBRANCH   7   8
ENDBRANCH   2   7
TORSDOF 9
ENDMDL
