MODEL 1
REMARK VINA RESULT:      -3.6      0.000      0.000
REMARK  14 active torsions:
REMARK  status: ('A' for Active; 'I' for Inactive)
REMARK    1  A    between atoms: O_2  and  C_18 
REMARK    2  A    between atoms: C_5  and  C_8 
REMARK    3  A    between atoms: C_5  and  O_35 
REMARK    4  A    between atoms: C_5  and  C_36 
REMARK    5  A    between atoms: N_6  and  C_11 
REMARK    6  A    between atoms: N_7  and  C_15 
REMARK       I    between atoms: N_7  and  C_24 
REMARK    7  A    between atoms: C_8  and  C_23 
REMARK    8  A    between atoms: C_11  and  C_14 
REMARK    9  A    between atoms: C_15  and  C_18 
REMARK   10  A    between atoms: C_15  and  C_23 
REMARK   11  A    between atoms: C_21  and  C_26 
REMARK   12  A    between atoms: C_24  and  C_25 
REMARK   13  A    between atoms: C_29  and  C_32 
REMARK   14  A    between atoms: C_36  and  O_39 
ROOT
HETATM    1  O   UNL     1      15.900   3.463  91.233  1.00  0.00    -0.350 OA
HETATM    2  N   UNL     1      13.583   2.543  92.607  1.00  0.00     0.147 N 
HETATM    3  C   UNL     1      13.572   3.793  91.836  1.00  0.00     0.283 C 
HETATM    4  C   UNL     1      14.935   2.278  93.117  1.00  0.00     0.283 C 
HETATM    5  C   UNL     1      14.595   3.713  90.706  1.00  0.00     0.178 C 
HETATM    6  C   UNL     1      15.926   2.233  91.959  1.00  0.00     0.178 C 
ENDROOT
BRANCH   2   7
HETATM    7  C   UNL     1      12.617   2.602  93.703  1.00  0.00     0.277 C 
BRANCH   7   8
HETATM    8  C   UNL     1      11.500   3.549  93.424  1.00  0.00     0.011 A 
HETATM    9  C   UNL     1      11.418   4.754  94.123  1.00  0.00    -0.002 A 
HETATM   10  C   UNL     1      10.372   5.640  93.865  1.00  0.00     0.008 A 
HETATM   11  C   UNL     1       9.410   5.322  92.907  1.00  0.00     0.042 A 
HETATM   12  C   UNL     1       9.491   4.119  92.208  1.00  0.00     0.008 A 
HETATM   13  C   UNL     1      10.536   3.232  92.466  1.00  0.00    -0.002 A 
BRANCH  11  14
HETATM   14  C   UNL     1       8.339   6.232  92.641  1.00  0.00    -0.059 C 
HETATM   15  C   UNL     1       7.439   6.997  92.418  1.00  0.00    -0.059 C 
BRANCH  15  16
HETATM   16  C   UNL     1       6.369   7.907  92.152  1.00  0.00     0.042 A 
HETATM   17  C   UNL     1       6.017   8.203  90.834  1.00  0.00     0.008 A 
HETATM   18  C   UNL     1       4.971   9.089  90.575  1.00  0.00     0.005 A 
HETATM   19  C   UNL     1       4.301   9.658  91.638  1.00  0.00     0.056 A 
HETATM   20  C   UNL     1       4.630   9.382  92.948  1.00  0.00     0.005 A 
HETATM   21  C   UNL     1       5.675   8.497  93.209  1.00  0.00     0.008 A 
BRANCH  19  22
HETATM   22  C   UNL     1       3.188  10.603  91.361  1.00  0.00     0.254 C 
HETATM   23  O   UNL     1       2.122  10.166  90.935  1.00  0.00    -0.268 OA
HETATM   24  N   UNL     1       3.443  11.939  91.636  1.00  0.00    -0.335 N 
HETATM   25  HN  UNL     1       4.341  12.224  92.010  1.00  0.00     0.164 HD
BRANCH  24  26
HETATM   26  C   UNL     1       2.457  12.973  91.444  1.00  0.00     0.169 C 
BRANCH  26  27
HETATM   27  C   UNL     1       2.228  13.816  92.704  1.00  0.00     0.138 C 
HETATM   28  C   UNL     1       3.523  14.393  93.264  1.00  0.00     0.034 C 
BRANCH  27  29
HETATM   29  O   UNL     1       1.334  14.888  92.404  1.00  0.00    -0.383 OA
HETATM   30  H   UNL     1       1.074  14.816  91.470  1.00  0.00     0.210 HD
ENDBRANCH  27  29
ENDBRANCH  26  27
BRANCH  26  31
HETATM   31  C   UNL     1       2.912  13.838  90.273  1.00  0.00     0.194 C 
HETATM   32  O   UNL     1       2.166  14.623  89.690  1.00  0.00    -0.289 OA
BRANCH  31  33
HETATM   33  C   UNL     1       4.222  13.604  89.933  1.00  0.00     0.053 C 
BRANCH  33  34
HETATM   34  C   UNL     1       4.448  13.211  88.606  1.00  0.00     0.220 C 
BRANCH  34  35
HETATM   35  O   UNL     1       5.680  13.169  88.426  1.00  0.00    -0.371 OA
HETATM   36  H   UNL     1       5.674  13.104  87.483  1.00  0.00     0.211 HD
ENDBRANCH  34  35
BRANCH  34  37
HETATM   37  C   UNL     1       3.817  12.002  88.265  1.00  0.00     0.185 C 
HETATM   38  O   UNL     1       5.053  11.624  87.978  1.00  0.00    -0.647 OA
BRANCH  37  39
HETATM   39  O   UNL     1       2.701  11.580  88.224  1.00  0.00    -0.774 OA
HETATM   40  H   UNL     1       2.664  10.470  88.453  1.00  0.00     0.167 HD
ENDBRANCH  37  39
ENDBRANCH  34  37
ENDBRANCH  33  34
ENDBRANCH  31  33
ENDBRANCH  26  31
ENDBRANCH  24  26
ENDBRANCH  19  22
ENDBRANCH  15  16
ENDBRANCH  11  14
ENDBRANCH   7   8
ENDBRANCH   2   7
TORSDOF 14
ENDMDL
MODEL 2
REMARK VINA RESULT:      -3.3      2.936     13.020
REMARK  14 active torsions:
REMARK  status: ('A' for Active; 'I' for Inactive)
REMARK    1  A    between atoms: O_2  and  C_18 
REMARK    2  A    between atoms: C_5  and  C_8 
REMARK    3  A    between atoms: C_5  and  O_35 
REMARK    4  A    between atoms: C_5  and  C_36 
REMARK    5  A    between atoms: N_6  and  C_11 
REMARK    6  A    between atoms: N_7  and  C_15 
REMARK       I    between atoms: N_7  and  C_24 
REMARK    7  A    between atoms: C_8  and  C_23 
REMARK    8  A    between atoms: C_11  and  C_14 
REMARK    9  A    between atoms: C_15  and  C_18 
REMARK   10  A    between atoms: C_15  and  C_23 
REMARK   11  A    between atoms: C_21  and  C_26 
REMARK   12  A    between atoms: C_24  and  C_25 
REMARK   13  A    between atoms: C_29  and  C_32 
REMARK   14  A    between atoms: C_36  and  O_39 
ROOT
HETATM    1  O   UNL     1       1.927  13.858  93.529  1.00  0.00    -0.350 OA
HETATM    2  N   UNL     1       2.762  14.778  90.968  1.00  0.00     0.147 N 
HETATM    3  C   UNL     1       2.129  13.464  91.143  1.00  0.00     0.283 C 
HETATM    4  C   UNL     1       3.479  15.158  92.193  1.00  0.00     0.283 C 
HETATM    5  C   UNL     1       1.200  13.494  92.354  1.00  0.00     0.178 C 
HETATM    6  C   UNL     1       2.520  15.148  93.378  1.00  0.00     0.178 C 
ENDROOT
BRANCH   2   7
HETATM    7  C   UNL     1       3.665  14.769  89.818  1.00  0.00     0.277 C 
BRANCH   7   8
HETATM    8  C   UNL     1       4.567  13.582  89.814  1.00  0.00     0.011 A 
HETATM    9  C   UNL     1       5.035  13.066  88.605  1.00  0.00    -0.002 A 
HETATM   10  C   UNL     1       5.877  11.954  88.600  1.00  0.00     0.008 A 
HETATM   11  C   UNL     1       6.253  11.360  89.804  1.00  0.00     0.042 A 
HETATM   12  C   UNL     1       5.786  11.874  91.012  1.00  0.00     0.008 A 
HETATM   13  C   UNL     1       4.944  12.985  91.018  1.00  0.00    -0.002 A 
BRANCH  11  14
HETATM   14  C   UNL     1       7.118  10.221  89.799  1.00  0.00    -0.059 C 
HETATM   15  C   UNL     1       7.845   9.264  89.794  1.00  0.00    -0.059 C 
BRANCH  15  16
HETATM   16  C   UNL     1       8.711   8.125  89.788  1.00  0.00     0.042 A 
HETATM   17  C   UNL     1       8.411   7.018  90.582  1.00  0.00     0.008 A 
HETATM   18  C   UNL     1       9.254   5.907  90.574  1.00  0.00     0.005 A 
HETATM   19  C   UNL     1      10.376   5.927  89.772  1.00  0.00     0.056 A 
HETATM   20  C   UNL     1      10.694   7.009  88.978  1.00  0.00     0.005 A 
HETATM   21  C   UNL     1       9.852   8.121  88.986  1.00  0.00     0.008 A 
BRANCH  19  22
HETATM   22  C   UNL     1      11.275   4.744  89.765  1.00  0.00     0.254 C 
HETATM   23  O   UNL     1      11.484   4.156  88.707  1.00  0.00    -0.268 OA
HETATM   24  N   UNL     1      11.841   4.403  90.986  1.00  0.00    -0.335 N 
HETATM   25  HN  UNL     1      11.641   4.951  91.815  1.00  0.00     0.164 HD
BRANCH  24  26
HETATM   26  C   UNL     1      12.751   3.297  91.137  1.00  0.00     0.169 C 
BRANCH  26  27
HETATM   27  C   UNL     1      14.194   3.660  90.761  1.00  0.00     0.138 C 
HETATM   28  C   UNL     1      14.532   3.291  89.321  1.00  0.00     0.034 C 
BRANCH  27  29
HETATM   29  O   UNL     1      14.395   5.061  90.940  1.00  0.00    -0.383 OA
HETATM   30  H   UNL     1      13.575   5.521  90.694  1.00  0.00     0.210 HD
ENDBRANCH  27  29
ENDBRANCH  26  27
BRANCH  26  31
HETATM   31  C   UNL     1      12.660   2.812  92.580  1.00  0.00     0.194 C 
HETATM   32  O   UNL     1      11.844   3.256  93.385  1.00  0.00    -0.289 OA
BRANCH  31  33
HETATM   33  C   UNL     1      13.611   1.864  92.870  1.00  0.00     0.053 C 
BRANCH  33  34
HETATM   34  C   UNL     1      14.423   2.134  93.981  1.00  0.00     0.220 C 
BRANCH  34  35
HETATM   35  O   UNL     1      15.203   1.174  94.123  1.00  0.00    -0.371 OA
HETATM   36  H   UNL     1      16.012   1.662  94.143  1.00  0.00     0.211 HD
ENDBRANCH  34  35
BRANCH  34  37
HETATM   37  C   UNL     1      15.098   3.363  93.895  1.00  0.00     0.185 C 
HETATM   38  O   UNL     1      16.155   2.587  93.714  1.00  0.00    -0.647 OA
BRANCH  37  39
HETATM   39  O   UNL     1      14.821   4.521  93.995  1.00  0.00    -0.774 OA
HETATM   40  H   UNL     1      14.633   4.815  95.074  1.00  0.00     0.167 HD
ENDBRANCH  37  39
ENDBRANCH  34  37
ENDBRANCH  33  34
ENDBRANCH  31  33
ENDBRANCH  26  31
ENDBRANCH  24  26
ENDBRANCH  19  22
ENDBRANCH  15  16
ENDBRANCH  11  14
ENDBRANCH   7   8
ENDBRANCH   2   7
TORSDOF 14
ENDMDL
MODEL 3
REMARK VINA RESULT:      -3.2      2.759     12.991
REMARK  14 active torsions:
REMARK  status: ('A' for Active; 'I' for Inactive)
REMARK    1  A    between atoms: O_2  and  C_18 
REMARK    2  A    between atoms: C_5  and  C_8 
REMARK    3  A    between atoms: C_5  and  O_35 
REMARK    4  A    between atoms: C_5  and  C_36 
REMARK    5  A    between atoms: N_6  and  C_11 
REMARK    6  A    between atoms: N_7  and  C_15 
REMARK       I    between atoms: N_7  and  C_24 
REMARK    7  A    between atoms: C_8  and  C_23 
REMARK    8  A    between atoms: C_11  and  C_14 
REMARK    9  A    between atoms: C_15  and  C_18 
REMARK   10  A    between atoms: C_15  and  C_23 
REMARK   11  A    between atoms: C_21  and  C_26 
REMARK   12  A    between atoms: C_24  and  C_25 
REMARK   13  A    between atoms: C_29  and  C_32 
REMARK   14  A    between atoms: C_36  and  O_39 
ROOT
HETATM    1  O   UNL     1       2.637  14.897  93.764  1.00  0.00    -0.350 OA
HETATM    2  N   UNL     1       2.956  14.738  90.940  1.00  0.00     0.147 N 
HETATM    3  C   UNL     1       1.879  14.016  91.633  1.00  0.00     0.283 C 
HETATM    4  C   UNL     1       4.109  14.903  91.836  1.00  0.00     0.283 C 
HETATM    5  C   UNL     1       1.499  14.760  92.911  1.00  0.00     0.178 C 
HETATM    6  C   UNL     1       3.677  15.624  93.108  1.00  0.00     0.178 C 
ENDROOT
BRANCH   2   7
HETATM    7  C   UNL     1       3.344  14.037  89.717  1.00  0.00     0.277 C 
BRANCH   7   8
HETATM    8  C   UNL     1       4.272  12.901  89.983  1.00  0.00     0.011 A 
HETATM    9  C   UNL     1       5.349  12.666  89.128  1.00  0.00    -0.002 A 
HETATM   10  C   UNL     1       6.216  11.602  89.375  1.00  0.00     0.008 A 
HETATM   11  C   UNL     1       6.007  10.775  90.478  1.00  0.00     0.042 A 
HETATM   12  C   UNL     1       4.933  11.009  91.333  1.00  0.00     0.008 A 
HETATM   13  C   UNL     1       4.065  12.072  91.086  1.00  0.00    -0.002 A 
BRANCH  11  14
HETATM   14  C   UNL     1       6.899   9.685  90.732  1.00  0.00    -0.059 C 
HETATM   15  C   UNL     1       7.647   8.769  90.946  1.00  0.00    -0.059 C 
BRANCH  15  16
HETATM   16  C   UNL     1       8.538   7.679  91.199  1.00  0.00     0.042 A 
HETATM   17  C   UNL     1       8.979   7.428  92.499  1.00  0.00     0.008 A 
HETATM   18  C   UNL     1       9.846   6.364  92.746  1.00  0.00     0.005 A 
HETATM   19  C   UNL     1      10.251   5.574  91.690  1.00  0.00     0.056 A 
HETATM   20  C   UNL     1       9.829   5.802  90.397  1.00  0.00     0.005 A 
HETATM   21  C   UNL     1       8.962   6.866  90.148  1.00  0.00     0.008 A 
BRANCH  19  22
HETATM   22  C   UNL     1      11.175   4.442  91.954  1.00  0.00     0.254 C 
HETATM   23  O   UNL     1      11.683   3.848  91.005  1.00  0.00    -0.268 OA
HETATM   24  N   UNL     1      11.417   4.152  93.289  1.00  0.00    -0.335 N 
HETATM   25  HN  UNL     1      10.981   4.702  94.020  1.00  0.00     0.164 HD
BRANCH  24  26
HETATM   26  C   UNL     1      12.308   3.100  93.706  1.00  0.00     0.169 C 
BRANCH  26  27
HETATM   27  C   UNL     1      11.969   1.747  93.068  1.00  0.00     0.138 C 
HETATM   28  C   UNL     1      10.490   1.621  92.719  1.00  0.00     0.034 C 
BRANCH  27  29
HETATM   29  O   UNL     1      12.741   1.572  91.880  1.00  0.00    -0.383 OA
HETATM   30  H   UNL     1      12.144   1.637  91.116  1.00  0.00     0.210 HD
ENDBRANCH  27  29
ENDBRANCH  26  27
BRANCH  26  31
HETATM   31  C   UNL     1      13.731   3.532  93.365  1.00  0.00     0.194 C 
HETATM   32  O   UNL     1      13.984   4.442  92.579  1.00  0.00    -0.289 OA
BRANCH  31  33
HETATM   33  C   UNL     1      14.674   2.765  94.006  1.00  0.00     0.053 C 
BRANCH  33  34
HETATM   34  C   UNL     1      15.977   2.849  93.497  1.00  0.00     0.220 C 
BRANCH  34  35
HETATM   35  O   UNL     1      15.908   2.751  92.257  1.00  0.00    -0.371 OA
HETATM   36  H   UNL     1      16.191   3.626  92.039  1.00  0.00     0.211 HD
ENDBRANCH  34  35
BRANCH  34  37
HETATM   37  C   UNL     1      16.664   4.006  93.903  1.00  0.00     0.185 C 
HETATM   38  O   UNL     1      17.671   3.161  94.057  1.00  0.00    -0.647 OA
BRANCH  37  39
HETATM   39  O   UNL     1      16.409   5.162  94.065  1.00  0.00    -0.774 OA
HETATM   40  H   UNL     1      17.280   5.721  94.531  1.00  0.00     0.167 HD
ENDBRANCH  37  39
ENDBRANCH  34  37
ENDBRANCH  33  34
ENDBRANCH  31  33
ENDBRANCH  26  31
ENDBRANCH  24  26
ENDBRANCH  19  22
ENDBRANCH  15  16
ENDBRANCH  11  14
ENDBRANCH   7   8
ENDBRANCH   2   7
TORSDOF 14
ENDMDL
MODEL 4
REMARK VINA RESULT:      -2.8      1.674      2.952
REMARK  14 active torsions:
REMARK  status: ('A' for Active; 'I' for Inactive)
REMARK    1  A    between atoms: O_2  and  C_18 
REMARK    2  A    between atoms: C_5  and  C_8 
REMARK    3  A    between atoms: C_5  and  O_35 
REMARK    4  A    between atoms: C_5  and  C_36 
REMARK    5  A    between atoms: N_6  and  C_11 
REMARK    6  A    between atoms: N_7  and  C_15 
REMARK       I    between atoms: N_7  and  C_24 
REMARK    7  A    between atoms: C_8  and  C_23 
REMARK    8  A    between atoms: C_11  and  C_14 
REMARK    9  A    between atoms: C_15  and  C_18 
REMARK   10  A    between atoms: C_15  and  C_23 
REMARK   11  A    between atoms: C_21  and  C_26 
REMARK   12  A    between atoms: C_24  and  C_25 
REMARK   13  A    between atoms: C_29  and  C_32 
REMARK   14  A    between atoms: C_36  and  O_39 
ROOT
HETATM    1  O   UNL     1      16.141   2.233  91.800  1.00  0.00    -0.350 OA
HETATM    2  N   UNL     1      13.553   2.616  92.919  1.00  0.00     0.147 N 
HETATM    3  C   UNL     1      14.373   1.446  93.263  1.00  0.00     0.283 C 
HETATM    4  C   UNL     1      13.880   3.079  91.564  1.00  0.00     0.283 C 
HETATM    5  C   UNL     1      15.853   1.795  93.129  1.00  0.00     0.178 C 
HETATM    6  C   UNL     1      15.371   3.388  91.468  1.00  0.00     0.178 C 
ENDROOT
BRANCH   2   7
HETATM    7  C   UNL     1      12.129   2.302  93.031  1.00  0.00     0.277 C 
BRANCH   7   8
HETATM    8  C   UNL     1      11.275   3.523  93.011  1.00  0.00     0.011 A 
HETATM    9  C   UNL     1      10.049   3.504  92.343  1.00  0.00    -0.002 A 
HETATM   10  C   UNL     1       9.250   4.647  92.321  1.00  0.00     0.008 A 
HETATM   11  C   UNL     1       9.675   5.806  92.968  1.00  0.00     0.042 A 
HETATM   12  C   UNL     1      10.898   5.826  93.635  1.00  0.00     0.008 A 
HETATM   13  C   UNL     1      11.698   4.684  93.657  1.00  0.00    -0.002 A 
BRANCH  11  14
HETATM   14  C   UNL     1       8.854   6.978  92.948  1.00  0.00    -0.059 C 
HETATM   15  C   UNL     1       8.163   7.962  92.930  1.00  0.00    -0.059 C 
BRANCH  15  16
HETATM   16  C   UNL     1       7.341   9.132  92.910  1.00  0.00     0.042 A 
HETATM   17  C   UNL     1       7.094   9.788  91.704  1.00  0.00     0.008 A 
HETATM   18  C   UNL     1       6.290  10.928  91.685  1.00  0.00     0.005 A 
HETATM   19  C   UNL     1       5.752  11.385  92.870  1.00  0.00     0.056 A 
HETATM   20  C   UNL     1       5.983  10.755  94.074  1.00  0.00     0.005 A 
HETATM   21  C   UNL     1       6.786   9.615  94.095  1.00  0.00     0.008 A 
BRANCH  19  22
HETATM   22  C   UNL     1       4.898  12.601  92.848  1.00  0.00     0.254 C 
HETATM   23  O   UNL     1       4.783  13.271  93.872  1.00  0.00    -0.268 OA
HETATM   24  N   UNL     1       4.302  12.904  91.632  1.00  0.00    -0.335 N 
HETATM   25  HN  UNL     1       4.463  12.317  90.822  1.00  0.00     0.164 HD
BRANCH  24  26
HETATM   26  C   UNL     1       3.465  14.062  91.446  1.00  0.00     0.169 C 
BRANCH  26  27
HETATM   27  C   UNL     1       3.907  14.928  90.259  1.00  0.00     0.138 C 
HETATM   28  C   UNL     1       5.264  15.583  90.488  1.00  0.00     0.034 C 
BRANCH  27  29
HETATM   29  O   UNL     1       3.972  14.126  89.081  1.00  0.00    -0.383 OA
HETATM   30  H   UNL     1       3.252  14.398  88.487  1.00  0.00     0.210 HD
ENDBRANCH  27  29
ENDBRANCH  26  27
BRANCH  26  31
HETATM   31  C   UNL     1       2.029  13.577  91.274  1.00  0.00     0.194 C 
HETATM   32  O   UNL     1       1.306  13.941  90.349  1.00  0.00    -0.289 OA
BRANCH  31  33
HETATM   33  C   UNL     1       1.643  12.730  92.285  1.00  0.00     0.053 C 
BRANCH  33  34
HETATM   34  C   UNL     1       1.528  11.377  91.936  1.00  0.00     0.220 C 
BRANCH  34  35
HETATM   35  O   UNL     1       2.153  11.204  90.873  1.00  0.00    -0.371 OA
HETATM   36  H   UNL     1       2.281  12.112  90.644  1.00  0.00     0.211 HD
ENDBRANCH  34  35
BRANCH  34  37
HETATM   37  C   UNL     1       1.946  10.500  92.951  1.00  0.00     0.185 C 
HETATM   38  O   UNL     1       2.573   9.898  91.952  1.00  0.00    -0.647 OA
BRANCH  37  39
HETATM   39  O   UNL     1       1.760  10.368  94.124  1.00  0.00    -0.774 OA
HETATM   40  H   UNL     1       0.658  10.440  94.384  1.00  0.00     0.167 HD
ENDBRANCH  37  39
ENDBRANCH  34  37
ENDBRANCH  33  34
ENDBRANCH  31  33
ENDBRANCH  26  31
ENDBRANCH  24  26
ENDBRANCH  19  22
ENDBRANCH  15  16
ENDBRANCH  11  14
ENDBRANCH   7   8
ENDBRANCH   2   7
TORSDOF 14
ENDMDL
MODEL 5
REMARK VINA RESULT:      -2.6      2.656     12.083
REMARK  14 active torsions:
REMARK  status: ('A' for Active; 'I' for Inactive)
REMARK    1  A    between atoms: O_2  and  C_18 
REMARK    2  A    between atoms: C_5  and  C_8 
REMARK    3  A    between atoms: C_5  and  O_35 
REMARK    4  A    between atoms: C_5  and  C_36 
REMARK    5  A    between atoms: N_6  and  C_11 
REMARK    6  A    between atoms: N_7  and  C_15 
REMARK       I    between atoms: N_7  and  C_24 
REMARK    7  A    between atoms: C_8  and  C_23 
REMARK    8  A    between atoms: C_11  and  C_14 
REMARK    9  A    between atoms: C_15  and  C_18 
REMARK   10  A    between atoms: C_15  and  C_23 
REMARK   11  A    between atoms: C_21  and  C_26 
REMARK   12  A    between atoms: C_24  and  C_25 
REMARK   13  A    between atoms: C_29  and  C_32 
REMARK   14  A    between atoms: C_36  and  O_39 
ROOT
HETATM    1  O   UNL     1       3.040  15.395  92.074  1.00  0.00    -0.350 OA
HETATM    2  N   UNL     1       1.405  13.472  93.390  1.00  0.00     0.147 N 
HETATM    3  C   UNL     1       2.404  14.262  94.124  1.00  0.00     0.283 C 
HETATM    4  C   UNL     1       1.830  13.294  91.995  1.00  0.00     0.283 C 
HETATM    5  C   UNL     1       2.619  15.602  93.424  1.00  0.00     0.178 C 
HETATM    6  C   UNL     1       2.060  14.655  91.346  1.00  0.00     0.178 C 
ENDROOT
BRANCH   2   7
HETATM    7  C   UNL     1       1.190  12.180  94.038  1.00  0.00     0.277 C 
BRANCH   7   8
HETATM    8  C   UNL     1       2.379  11.286  93.931  1.00  0.00     0.011 A 
HETATM    9  C   UNL     1       3.660  11.806  94.123  1.00  0.00    -0.002 A 
HETATM   10  C   UNL     1       4.773  10.971  94.021  1.00  0.00     0.008 A 
HETATM   11  C   UNL     1       4.604   9.618  93.729  1.00  0.00     0.042 A 
HETATM   12  C   UNL     1       3.326   9.098  93.538  1.00  0.00     0.008 A 
HETATM   13  C   UNL     1       2.212   9.933  93.639  1.00  0.00    -0.002 A 
BRANCH  11  14
HETATM   14  C   UNL     1       5.746   8.762  93.627  1.00  0.00    -0.059 C 
HETATM   15  C   UNL     1       6.706   8.043  93.541  1.00  0.00    -0.059 C 
BRANCH  15  16
HETATM   16  C   UNL     1       7.847   7.187  93.440  1.00  0.00     0.042 A 
HETATM   17  C   UNL     1       7.681   5.802  93.454  1.00  0.00     0.008 A 
HETATM   18  C   UNL     1       8.794   4.967  93.353  1.00  0.00     0.005 A 
HETATM   19  C   UNL     1      10.046   5.535  93.238  1.00  0.00     0.056 A 
HETATM   20  C   UNL     1      10.235   6.901  93.221  1.00  0.00     0.005 A 
HETATM   21  C   UNL     1       9.123   7.737  93.323  1.00  0.00     0.008 A 
BRANCH  19  22
HETATM   22  C   UNL     1      11.231   4.645  93.131  1.00  0.00     0.254 C 
HETATM   23  O   UNL     1      11.233   3.574  93.734  1.00  0.00    -0.268 OA
HETATM   24  N   UNL     1      12.260   5.098  92.318  1.00  0.00    -0.335 N 
HETATM   25  HN  UNL     1      12.177   5.983  91.831  1.00  0.00     0.164 HD
BRANCH  24  26
HETATM   26  C   UNL     1      13.464   4.338  92.094  1.00  0.00     0.169 C 
BRANCH  26  27
HETATM   27  C   UNL     1      13.767   3.358  93.234  1.00  0.00     0.138 C 
HETATM   28  C   UNL     1      13.911   1.921  92.746  1.00  0.00     0.034 C 
BRANCH  27  29
HETATM   29  O   UNL     1      14.973   3.748  93.890  1.00  0.00    -0.383 OA
HETATM   30  H   UNL     1      15.714   3.281  93.469  1.00  0.00     0.210 HD
ENDBRANCH  27  29
ENDBRANCH  26  27
BRANCH  26  31
HETATM   31  C   UNL     1      13.314   3.610  90.762  1.00  0.00     0.194 C 
HETATM   32  O   UNL     1      14.275   3.273  90.072  1.00  0.00    -0.289 OA
BRANCH  31  33
HETATM   33  C   UNL     1      11.998   3.419  90.420  1.00  0.00     0.053 C 
BRANCH  33  34
HETATM   34  C   UNL     1      11.539   4.157  89.320  1.00  0.00     0.220 C 
BRANCH  34  35
HETATM   35  O   UNL     1      11.958   3.600  88.287  1.00  0.00    -0.371 OA
HETATM   36  H   UNL     1      12.438   2.898  88.700  1.00  0.00     0.211 HD
ENDBRANCH  34  35
BRANCH  34  37
HETATM   37  C   UNL     1      10.145   4.332  89.304  1.00  0.00     0.185 C 
HETATM   38  O   UNL     1      10.445   5.491  89.869  1.00  0.00    -0.647 OA
BRANCH  37  39
HETATM   39  O   UNL     1       9.188   3.696  88.978  1.00  0.00    -0.774 OA
HETATM   40  H   UNL     1       9.328   3.224  87.955  1.00  0.00     0.167 HD
ENDBRANCH  37  39
ENDBRANCH  34  37
ENDBRANCH  33  34
ENDBRANCH  31  33
ENDBRANCH  26  31
ENDBRANCH  24  26
ENDBRANCH  19  22
ENDBRANCH  15  16
ENDBRANCH  11  14
ENDBRANCH   7   8
ENDBRANCH   2   7
TORSDOF 14
ENDMDL
MODEL 6
REMARK VINA RESULT:      -2.5      1.670      2.114
REMARK  14 active torsions:
REMARK  status: ('A' for Active; 'I' for Inactive)
REMARK    1  A    between atoms: O_2  and  C_18 
REMARK    2  A    between atoms: C_5  and  C_8 
REMARK    3  A    between atoms: C_5  and  O_35 
REMARK    4  A    between atoms: C_5  and  C_36 
REMARK    5  A    between atoms: N_6  and  C_11 
REMARK    6  A    between atoms: N_7  and  C_15 
REMARK       I    between atoms: N_7  and  C_24 
REMARK    7  A    between atoms: C_8  and  C_23 
REMARK    8  A    between atoms: C_11  and  C_14 
REMARK    9  A    between atoms: C_15  and  C_18 
REMARK   10  A    between atoms: C_15  and  C_23 
REMARK   11  A    between atoms: C_21  and  C_26 
REMARK   12  A    between atoms: C_24  and  C_25 
REMARK   13  A    between atoms: C_29  and  C_32 
REMARK   14  A    between atoms: C_36  and  O_39 
ROOT
HETATM    1  O   UNL     1      14.614   2.962  93.365  1.00  0.00    -0.350 OA
HETATM    2  N   UNL     1      13.627   2.601  90.720  1.00  0.00     0.147 N 
HETATM    3  C   UNL     1      14.414   3.785  91.091  1.00  0.00     0.283 C 
HETATM    4  C   UNL     1      12.893   2.098  91.890  1.00  0.00     0.283 C 
HETATM    5  C   UNL     1      15.356   3.439  92.242  1.00  0.00     0.178 C 
HETATM    6  C   UNL     1      13.869   1.793  93.021  1.00  0.00     0.178 C 
ENDROOT
BRANCH   2   7
HETATM    7  C   UNL     1      12.709   2.913  89.626  1.00  0.00     0.277 C 
BRANCH   7   8
HETATM    8  C   UNL     1      11.641   3.869  90.034  1.00  0.00     0.011 A 
HETATM    9  C   UNL     1      11.456   5.053  89.319  1.00  0.00    -0.002 A 
HETATM   10  C   UNL     1      10.459   5.950  89.701  1.00  0.00     0.008 A 
HETATM   11  C   UNL     1       9.646   5.662  90.797  1.00  0.00     0.042 A 
HETATM   12  C   UNL     1       9.830   4.480  91.512  1.00  0.00     0.008 A 
HETATM   13  C   UNL     1      10.828   3.583  91.131  1.00  0.00    -0.002 A 
BRANCH  11  14
HETATM   14  C   UNL     1       8.622   6.581  91.188  1.00  0.00    -0.059 C 
HETATM   15  C   UNL     1       7.762   7.354  91.516  1.00  0.00    -0.059 C 
BRANCH  15  16
HETATM   16  C   UNL     1       6.738   8.273  91.906  1.00  0.00     0.042 A 
HETATM   17  C   UNL     1       6.165   9.122  90.958  1.00  0.00     0.008 A 
HETATM   18  C   UNL     1       5.165  10.016  91.338  1.00  0.00     0.005 A 
HETATM   19  C   UNL     1       4.758  10.040  92.656  1.00  0.00     0.056 A 
HETATM   20  C   UNL     1       5.308   9.212  93.612  1.00  0.00     0.005 A 
HETATM   21  C   UNL     1       6.309   8.318  93.233  1.00  0.00     0.008 A 
BRANCH  19  22
HETATM   22  C   UNL     1       3.693  10.994  93.061  1.00  0.00     0.254 C 
HETATM   23  O   UNL     1       3.103  10.818  94.124  1.00  0.00    -0.268 OA
HETATM   24  N   UNL     1       3.461  12.051  92.192  1.00  0.00    -0.335 N 
HETATM   25  HN  UNL     1       4.006  12.146  91.343  1.00  0.00     0.164 HD
BRANCH  24  26
HETATM   26  C   UNL     1       2.479  13.072  92.456  1.00  0.00     0.169 C 
BRANCH  26  27
HETATM   27  C   UNL     1       2.896  14.018  93.589  1.00  0.00     0.138 C 
HETATM   28  C   UNL     1       4.410  14.175  93.691  1.00  0.00     0.034 C 
BRANCH  27  29
HETATM   29  O   UNL     1       2.310  15.302  93.379  1.00  0.00    -0.383 OA
HETATM   30  H   UNL     1       1.875  15.300  92.510  1.00  0.00     0.210 HD
ENDBRANCH  27  29
ENDBRANCH  26  27
BRANCH  26  31
HETATM   31  C   UNL     1       2.238  13.834  91.158  1.00  0.00     0.194 C 
HETATM   32  O   UNL     1       1.468  14.789  91.075  1.00  0.00    -0.289 OA
BRANCH  31  33
HETATM   33  C   UNL     1       2.946  13.305  90.106  1.00  0.00     0.053 C 
BRANCH  33  34
HETATM   34  C   UNL     1       3.954  14.122  89.576  1.00  0.00     0.220 C 
BRANCH  34  35
HETATM   35  O   UNL     1       4.728  14.422  90.505  1.00  0.00    -0.371 OA
HETATM   36  H   UNL     1       4.085  14.505  91.192  1.00  0.00     0.211 HD
ENDBRANCH  34  35
BRANCH  34  37
HETATM   37  C   UNL     1       4.628  13.545  88.486  1.00  0.00     0.185 C 
HETATM   38  O   UNL     1       5.700  13.796  89.220  1.00  0.00    -0.647 OA
BRANCH  37  39
HETATM   39  O   UNL     1       4.338  13.102  87.415  1.00  0.00    -0.774 OA
HETATM   40  H   UNL     1       3.870  13.892  86.748  1.00  0.00     0.167 HD
ENDBRANCH  37  39
ENDBRANCH  34  37
ENDBRANCH  33  34
ENDBRANCH  31  33
ENDBRANCH  26  31
ENDBRANCH  24  26
ENDBRANCH  19  22
ENDBRANCH  15  16
ENDBRANCH  11  14
ENDBRANCH   7   8
ENDBRANCH   2   7
TORSDOF 14
ENDMDL
MODEL 7
REMARK VINA RESULT:      -1.9      2.765     12.743
REMARK  14 active torsions:
REMARK  status: ('A' for Active; 'I' for Inactive)
REMARK    1  A    between atoms: O_2  and  C_18 
REMARK    2  A    between atoms: C_5  and  C_8 
REMARK    3  A    between atoms: C_5  and  O_35 
REMARK    4  A    between atoms: C_5  and  C_36 
REMARK    5  A    between atoms: N_6  and  C_11 
REMARK    6  A    between atoms: N_7  and  C_15 
REMARK       I    between atoms: N_7  and  C_24 
REMARK    7  A    between atoms: C_8  and  C_23 
REMARK    8  A    between atoms: C_11  and  C_14 
REMARK    9  A    between atoms: C_15  and  C_18 
REMARK   10  A    between atoms: C_15  and  C_23 
REMARK   11  A    between atoms: C_21  and  C_26 
REMARK   12  A    between atoms: C_24  and  C_25 
REMARK   13  A    between atoms: C_29  and  C_32 
REMARK   14  A    between atoms: C_36  and  O_39 
ROOT
HETATM    1  O   UNL     1       2.240  15.624  93.395  1.00  0.00    -0.350 OA
HETATM    2  N   UNL     1       2.733  13.368  91.731  1.00  0.00     0.147 N 
HETATM    3  C   UNL     1       3.804  14.310  92.084  1.00  0.00     0.283 C 
HETATM    4  C   UNL     1       1.436  14.059  91.725  1.00  0.00     0.283 C 
HETATM    5  C   UNL     1       3.501  14.954  93.435  1.00  0.00     0.178 C 
HETATM    6  C   UNL     1       1.189  14.709  93.082  1.00  0.00     0.178 C 
ENDROOT
BRANCH   2   7
HETATM    7  C   UNL     1       2.996  12.746  90.435  1.00  0.00     0.277 C 
BRANCH   7   8
HETATM    8  C   UNL     1       4.122  11.771  90.491  1.00  0.00     0.011 A 
HETATM    9  C   UNL     1       4.093  10.725  91.415  1.00  0.00    -0.002 A 
HETATM   10  C   UNL     1       5.147   9.813  91.470  1.00  0.00     0.008 A 
HETATM   11  C   UNL     1       6.228   9.946  90.600  1.00  0.00     0.042 A 
HETATM   12  C   UNL     1       6.259  10.989  89.677  1.00  0.00     0.008 A 
HETATM   13  C   UNL     1       5.206  11.902  89.622  1.00  0.00    -0.002 A 
BRANCH  11  14
HETATM   14  C   UNL     1       7.308   9.009  90.655  1.00  0.00    -0.059 C 
HETATM   15  C   UNL     1       8.216   8.222  90.702  1.00  0.00    -0.059 C 
BRANCH  15  16
HETATM   16  C   UNL     1       9.295   7.285  90.758  1.00  0.00     0.042 A 
HETATM   17  C   UNL     1       9.893   6.841  89.578  1.00  0.00     0.008 A 
HETATM   18  C   UNL     1      10.947   5.929  89.633  1.00  0.00     0.005 A 
HETATM   19  C   UNL     1      11.379   5.483  90.864  1.00  0.00     0.056 A 
HETATM   20  C   UNL     1      10.804   5.907  92.044  1.00  0.00     0.005 A 
HETATM   21  C   UNL     1       9.750   6.818  91.991  1.00  0.00     0.008 A 
BRANCH  19  22
HETATM   22  C   UNL     1      12.501   4.510  90.921  1.00  0.00     0.254 C 
HETATM   23  O   UNL     1      12.817   3.899  89.904  1.00  0.00    -0.268 OA
HETATM   24  N   UNL     1      13.135   4.385  92.150  1.00  0.00    -0.335 N 
HETATM   25  HN  UNL     1      12.834   4.942  92.941  1.00  0.00     0.164 HD
BRANCH  24  26
HETATM   26  C   UNL     1      14.254   3.501  92.358  1.00  0.00     0.169 C 
BRANCH  26  27
HETATM   27  C   UNL     1      15.261   4.050  93.377  1.00  0.00     0.138 C 
HETATM   28  C   UNL     1      16.370   3.053  93.696  1.00  0.00     0.034 C 
BRANCH  27  29
HETATM   29  O   UNL     1      15.847   5.249  92.871  1.00  0.00    -0.383 OA
HETATM   30  H   UNL     1      16.657   5.429  93.377  1.00  0.00     0.210 HD
ENDBRANCH  27  29
ENDBRANCH  26  27
BRANCH  26  31
HETATM   31  C   UNL     1      13.703   2.148  92.796  1.00  0.00     0.194 C 
HETATM   32  O   UNL     1      14.339   1.100  92.689  1.00  0.00    -0.289 OA
BRANCH  31  33
HETATM   33  C   UNL     1      12.420   2.241  93.278  1.00  0.00     0.053 C 
BRANCH  33  34
HETATM   34  C   UNL     1      11.400   2.113  92.325  1.00  0.00     0.220 C 
BRANCH  34  35
HETATM   35  O   UNL     1      11.791   1.314  91.453  1.00  0.00    -0.371 OA
HETATM   36  H   UNL     1      12.488   0.909  91.947  1.00  0.00     0.211 HD
ENDBRANCH  34  35
BRANCH  34  37
HETATM   37  C   UNL     1      10.162   1.738  92.875  1.00  0.00     0.185 C 
HETATM   38  O   UNL     1       9.839   2.991  92.597  1.00  0.00    -0.647 OA
BRANCH  37  39
HETATM   39  O   UNL     1       9.691   0.765  93.383  1.00  0.00    -0.774 OA
HETATM   40  H   UNL     1      10.009  -0.183  92.846  1.00  0.00     0.167 HD
ENDBRANCH  37  39
ENDBRANCH  34  37
ENDBRANCH  33  34
ENDBRANCH  31  33
ENDBRANCH  26  31
ENDBRANCH  24  26
ENDBRANCH  19  22
ENDBRANCH  15  16
ENDBRANCH  11  14
ENDBRANCH   7   8
ENDBRANCH   2   7
TORSDOF 14
ENDMDL
MODEL 8
REMARK VINA RESULT:      -1.4      1.194      1.817
REMARK  14 active torsions:
REMARK  status: ('A' for Active; 'I' for Inactive)
REMARK    1  A    between atoms: O_2  and  C_18 
REMARK    2  A    between atoms: C_5  and  C_8 
REMARK    3  A    between atoms: C_5  and  O_35 
REMARK    4  A    between atoms: C_5  and  C_36 
REMARK    5  A    between atoms: N_6  and  C_11 
REMARK    6  A    between atoms: N_7  and  C_15 
REMARK       I    between atoms: N_7  and  C_24 
REMARK    7  A    between atoms: C_8  and  C_23 
REMARK    8  A    between atoms: C_11  and  C_14 
REMARK    9  A    between atoms: C_15  and  C_18 
REMARK   10  A    between atoms: C_15  and  C_23 
REMARK   11  A    between atoms: C_21  and  C_26 
REMARK   12  A    between atoms: C_24  and  C_25 
REMARK   13  A    between atoms: C_29  and  C_32 
REMARK   14  A    between atoms: C_36  and  O_39 
ROOT
HETATM    1  O   UNL     1      16.869   3.782  93.804  1.00  0.00    -0.350 OA
HETATM    2  N   UNL     1      14.258   3.032  92.955  1.00  0.00     0.147 N 
HETATM    3  C   UNL     1      15.343   2.047  93.060  1.00  0.00     0.283 C 
HETATM    4  C   UNL     1      14.810   4.361  92.659  1.00  0.00     0.283 C 
HETATM    5  C   UNL     1      16.344   2.493  94.124  1.00  0.00     0.178 C 
HETATM    6  C   UNL     1      15.823   4.752  93.730  1.00  0.00     0.178 C 
ENDROOT
BRANCH   2   7
HETATM    7  C   UNL     1      13.292   2.631  91.934  1.00  0.00     0.277 C 
BRANCH   7   8
HETATM    8  C   UNL     1      12.140   3.572  91.841  1.00  0.00     0.011 A 
HETATM    9  C   UNL     1      11.698   4.011  90.592  1.00  0.00    -0.002 A 
HETATM   10  C   UNL     1      10.622   4.894  90.503  1.00  0.00     0.008 A 
HETATM   11  C   UNL     1       9.986   5.335  91.663  1.00  0.00     0.042 A 
HETATM   12  C   UNL     1      10.426   4.897  92.911  1.00  0.00     0.008 A 
HETATM   13  C   UNL     1      11.503   4.015  93.000  1.00  0.00    -0.002 A 
BRANCH  11  14
HETATM   14  C   UNL     1       8.880   6.238  91.572  1.00  0.00    -0.059 C 
HETATM   15  C   UNL     1       7.952   6.998  91.495  1.00  0.00    -0.059 C 
BRANCH  15  16
HETATM   16  C   UNL     1       6.847   7.901  91.404  1.00  0.00     0.042 A 
HETATM   17  C   UNL     1       6.566   8.767  92.460  1.00  0.00     0.008 A 
HETATM   18  C   UNL     1       5.489   9.649  92.369  1.00  0.00     0.005 A 
HETATM   19  C   UNL     1       4.720   9.646  91.225  1.00  0.00     0.056 A 
HETATM   20  C   UNL     1       4.977   8.800  90.167  1.00  0.00     0.005 A 
HETATM   21  C   UNL     1       6.053   7.917  90.257  1.00  0.00     0.008 A 
BRANCH  19  22
HETATM   22  C   UNL     1       3.572  10.585  91.129  1.00  0.00     0.254 C 
HETATM   23  O   UNL     1       2.519  10.197  90.630  1.00  0.00    -0.268 OA
HETATM   24  N   UNL     1       3.780  11.855  91.650  1.00  0.00    -0.335 N 
HETATM   25  HN  UNL     1       4.669  12.097  92.070  1.00  0.00     0.164 HD
BRANCH  24  26
HETATM   26  C   UNL     1       2.757  12.869  91.653  1.00  0.00     0.169 C 
BRANCH  26  27
HETATM   27  C   UNL     1       2.713  13.664  92.964  1.00  0.00     0.138 C 
HETATM   28  C   UNL     1       4.100  14.080  93.441  1.00  0.00     0.034 C 
BRANCH  27  29
HETATM   29  O   UNL     1       1.913  14.833  92.787  1.00  0.00    -0.383 OA
HETATM   30  H   UNL     1       1.153  14.601  92.228  1.00  0.00     0.210 HD
ENDBRANCH  27  29
ENDBRANCH  26  27
BRANCH  26  31
HETATM   31  C   UNL     1       3.003  13.784  90.458  1.00  0.00     0.194 C 
HETATM   32  O   UNL     1       2.102  14.391  89.882  1.00  0.00    -0.289 OA
BRANCH  31  33
HETATM   33  C   UNL     1       4.327  13.813  90.090  1.00  0.00     0.053 C 
BRANCH  33  34
HETATM   34  C   UNL     1       4.579  13.733  88.714  1.00  0.00     0.220 C 
BRANCH  34  35
HETATM   35  O   UNL     1       5.701  14.233  88.503  1.00  0.00    -0.371 OA
HETATM   36  H   UNL     1       5.688  14.882  89.191  1.00  0.00     0.211 HD
ENDBRANCH  34  35
BRANCH  34  37
HETATM   37  C   UNL     1       4.471  12.430  88.198  1.00  0.00     0.185 C 
HETATM   38  O   UNL     1       5.691  12.304  88.696  1.00  0.00    -0.647 OA
BRANCH  37  39
HETATM   39  O   UNL     1       3.669  11.800  87.577  1.00  0.00    -0.774 OA
HETATM   40  H   UNL     1       3.772  10.687  87.768  1.00  0.00     0.167 HD
ENDBRANCH  37  39
ENDBRANCH  34  37
ENDBRANCH  33  34
ENDBRANCH  31  33
ENDBRANCH  26  31
ENDBRANCH  24  26
ENDBRANCH  19  22
ENDBRANCH  15  16
ENDBRANCH  11  14
ENDBRANCH   7   8
ENDBRANCH   2   7
TORSDOF 14
ENDMDL
MODEL 9
REMARK VINA RESULT:      -1.1      2.820     12.390
REMARK  14 active torsions:
REMARK  status: ('A' for Active; 'I' for Inactive)
REMARK    1  A    between atoms: O_2  and  C_18 
REMARK    2  A    between atoms: C_5  and  C_8 
REMARK    3  A    between atoms: C_5  and  O_35 
REMARK    4  A    between atoms: C_5  and  C_36 
REMARK    5  A    between atoms: N_6  and  C_11 
REMARK    6  A    between atoms: N_7  and  C_15 
REMARK       I    between atoms: N_7  and  C_24 
REMARK    7  A    between atoms: C_8  and  C_23 
REMARK    8  A    between atoms: C_11  and  C_14 
REMARK    9  A    between atoms: C_15  and  C_18 
REMARK   10  A    between atoms: C_15  and  C_23 
REMARK   11  A    between atoms: C_21  and  C_26 
REMARK   12  A    between atoms: C_24  and  C_25 
REMARK   13  A    between atoms: C_29  and  C_32 
REMARK   14  A    between atoms: C_36  and  O_39 
ROOT
HETATM    1  O   UNL     1       2.707  15.378  91.633  1.00  0.00    -0.350 OA
HETATM    2  N   UNL     1       1.444  13.621  93.482  1.00  0.00     0.147 N 
HETATM    3  C   UNL     1       2.794  14.147  93.723  1.00  0.00     0.283 C 
HETATM    4  C   UNL     1       1.190  13.529  92.038  1.00  0.00     0.283 C 
HETATM    5  C   UNL     1       2.952  15.501  93.035  1.00  0.00     0.178 C 
HETATM    6  C   UNL     1       1.385  14.896  91.389  1.00  0.00     0.178 C 
ENDROOT
BRANCH   2   7
HETATM    7  C   UNL     1       1.274  12.318  94.123  1.00  0.00     0.277 C 
BRANCH   7   8
HETATM    8  C   UNL     1       2.238  11.303  93.612  1.00  0.00     0.011 A 
HETATM    9  C   UNL     1       1.843  10.404  92.621  1.00  0.00    -0.002 A 
HETATM   10  C   UNL     1       2.744   9.453  92.143  1.00  0.00     0.008 A 
HETATM   11  C   UNL     1       4.040   9.402  92.656  1.00  0.00     0.042 A 
HETATM   12  C   UNL     1       4.435  10.299  93.645  1.00  0.00     0.008 A 
HETATM   13  C   UNL     1       3.535  11.250  94.124  1.00  0.00    -0.002 A 
BRANCH  11  14
HETATM   14  C   UNL     1       4.964   8.427  92.164  1.00  0.00    -0.059 C 
HETATM   15  C   UNL     1       5.741   7.607  91.751  1.00  0.00    -0.059 C 
BRANCH  15  16
HETATM   16  C   UNL     1       6.664   6.633  91.259  1.00  0.00     0.042 A 
HETATM   17  C   UNL     1       6.389   5.949  90.074  1.00  0.00     0.008 A 
HETATM   18  C   UNL     1       7.292   5.000  89.593  1.00  0.00     0.005 A 
HETATM   19  C   UNL     1       8.448   4.758  90.306  1.00  0.00     0.056 A 
HETATM   20  C   UNL     1       8.742   5.420  91.479  1.00  0.00     0.005 A 
HETATM   21  C   UNL     1       7.840   6.369  91.961  1.00  0.00     0.008 A 
BRANCH  19  22
HETATM   22  C   UNL     1       9.407   3.746  89.794  1.00  0.00     0.254 C 
HETATM   23  O   UNL     1       8.989   2.645  89.444  1.00  0.00    -0.268 OA
HETATM   24  N   UNL     1      10.735   4.146  89.727  1.00  0.00    -0.335 N 
HETATM   25  HN  UNL     1      11.003   5.081  90.010  1.00  0.00     0.164 HD
BRANCH  24  26
HETATM   26  C   UNL     1      11.780   3.287  89.230  1.00  0.00     0.169 C 
BRANCH  26  27
HETATM   27  C   UNL     1      11.988   3.420  87.716  1.00  0.00     0.138 C 
HETATM   28  C   UNL     1      11.486   2.203  86.948  1.00  0.00     0.034 C 
BRANCH  27  29
HETATM   29  O   UNL     1      11.308   4.581  87.241  1.00  0.00    -0.383 OA
HETATM   30  H   UNL     1      10.825   4.978  87.986  1.00  0.00     0.210 HD
ENDBRANCH  27  29
ENDBRANCH  26  27
BRANCH  26  31
HETATM   31  C   UNL     1      13.056   3.615  89.997  1.00  0.00     0.194 C 
HETATM   32  O   UNL     1      14.173   3.589  89.481  1.00  0.00    -0.289 OA
BRANCH  31  33
HETATM   33  C   UNL     1      12.810   3.899  91.318  1.00  0.00     0.053 C 
BRANCH  33  34
HETATM   34  C   UNL     1      13.815   3.524  92.221  1.00  0.00     0.220 C 
BRANCH  34  35
HETATM   35  O   UNL     1      14.729   4.367  92.144  1.00  0.00    -0.371 OA
HETATM   36  H   UNL     1      14.679   4.533  91.215  1.00  0.00     0.211 HD
ENDBRANCH  34  35
BRANCH  34  37
HETATM   37  C   UNL     1      13.352   3.357  93.537  1.00  0.00     0.185 C 
HETATM   38  O   UNL     1      14.646   3.346  93.820  1.00  0.00    -0.647 OA
BRANCH  37  39
HETATM   39  O   UNL     1      12.297   3.237  94.084  1.00  0.00    -0.774 OA
HETATM   40  H   UNL     1      11.461   3.723  93.490  1.00  0.00     0.167 HD
ENDBRANCH  37  39
ENDBRANCH  34  37
ENDBRANCH  33  34
ENDBRANCH  31  33
ENDBRANCH  26  31
ENDBRANCH  24  26
ENDBRANCH  19  22
ENDBRANCH  15  16
ENDBRANCH  11  14
ENDBRANCH   7   8
ENDBRANCH   2   7
TORSDOF 14
ENDMDL
