MODEL 1
REMARK VINA RESULT:      -7.1      0.000      0.000
REMARK  9 active torsions:
REMARK  status: ('A' for Active; 'I' for Inactive)
REMARK    1  A    between atoms: O_2  and  C_17 
REMARK    2  A    between atoms: N_5  and  C_10 
REMARK    3  A    between atoms: N_6  and  C_14 
REMARK       I    between atoms: N_6  and  C_23 
REMARK       I    between atoms: N_7  and  C_22 
REMARK    4  A    between atoms: C_10  and  C_13 
REMARK    5  A    between atoms: C_14  and  C_17 
REMARK    6  A    between atoms: C_14  and  C_22 
REMARK    7  A    between atoms: C_20  and  C_25 
REMARK    8  A    between atoms: C_23  and  C_24 
REMARK    9  A    between atoms: C_28  and  C_31 
ROOT
HETATM    1  O   UNL     1      16.073   3.950  94.123  1.00  0.00    -0.388 OA
HETATM    2  N   UNL     1      14.143   2.614  92.513  1.00  0.00     0.096 N 
HETATM    3  C   UNL     1      14.243   4.080  92.535  1.00  0.00     0.299 C 
HETATM    4  C   UNL     1      14.587   2.060  93.800  1.00  0.00     0.299 C 
HETATM    5  C   UNL     1      15.674   4.496  92.865  1.00  0.00     0.198 C 
HETATM    6  C   UNL     1      16.009   2.523  94.100  1.00  0.00     0.198 C 
ENDROOT
BRANCH   2   7
HETATM    7  C   UNL     1      12.777   2.192  92.209  1.00  0.00     0.311 C 
BRANCH   7   8
HETATM    8  C   UNL     1      11.887   3.343  91.883  1.00  0.00    -0.030 A 
HETATM    9  C   UNL     1      11.298   4.081  92.910  1.00  0.00     0.010 A 
HETATM   10  C   UNL     1      10.464   5.157  92.605  1.00  0.00     0.021 A 
HETATM   11  C   UNL     1      10.220   5.494  91.274  1.00  0.00     0.018 A 
HETATM   12  C   UNL     1      10.807   4.757  90.248  1.00  0.00     0.021 A 
HETATM   13  C   UNL     1      11.641   3.681  90.552  1.00  0.00     0.010 A 
BRANCH  11  14
HETATM   14  C   UNL     1       9.365   6.598  90.962  1.00  0.00    -0.061 C 
HETATM   15  C   UNL     1       8.647   7.526  90.700  1.00  0.00    -0.061 C 
BRANCH  15  16
HETATM   16  C   UNL     1       7.792   8.629  90.388  1.00  0.00     0.018 A 
HETATM   17  C   UNL     1       8.345   9.852  90.006  1.00  0.00     0.022 A 
HETATM   18  C   UNL     1       7.511  10.927  89.699  1.00  0.00     0.018 A 
HETATM   19  C   UNL     1       6.145  10.756  89.782  1.00  0.00     0.032 A 
HETATM   20  C   UNL     1       5.575   9.558  90.158  1.00  0.00     0.018 A 
HETATM   21  C   UNL     1       6.407   8.482  90.465  1.00  0.00     0.022 A 
BRANCH  19  22
HETATM   22  C   UNL     1       5.257  11.902  89.457  1.00  0.00     0.252 C 
HETATM   23  O   UNL     1       4.983  12.134  88.282  1.00  0.00    -0.268 OA
HETATM   24  N   UNL     1       4.776  12.624  90.540  1.00  0.00    -0.342 N 
HETATM   25  H   UNL     1       5.026  12.358  91.486  1.00  0.00     0.163 HD
BRANCH  24  26
HETATM   26  C   UNL     1       3.886  13.747  90.390  1.00  0.00     0.199 C 
BRANCH  26  27
HETATM   27  C   UNL     1       2.625  13.626  91.255  1.00  0.00     0.145 C 
HETATM   28  C   UNL     1       2.937  13.189  92.683  1.00  0.00     0.042 C 
BRANCH  27  29
HETATM   29  O   UNL     1       1.949  14.882  91.292  1.00  0.00    -0.393 OA
HETATM   30  H   UNL     1       1.642  15.036  92.202  1.00  0.00     0.210 HD
ENDBRANCH  27  29
ENDBRANCH  26  27
BRANCH  26  31
HETATM   31  C   UNL     1       4.670  15.011  90.727  1.00  0.00     0.220 C 
HETATM   32  O   UNL     1       4.787  15.441  91.873  1.00  0.00    -0.278 OA
HETATM   33  N   UNL     1       5.184  15.617  89.607  1.00  0.00    -0.271 NA
HETATM   34  H   UNL     1       5.032  15.341  88.643  1.00  0.00     0.127 HD
HETATM   35  H   UNL     1       4.775  16.813  88.997  1.00  0.00     0.127 HD
ENDBRANCH  26  31
ENDBRANCH  24  26
ENDBRANCH  19  22
ENDBRANCH  15  16
ENDBRANCH  11  14
ENDBRANCH   7   8
ENDBRANCH   2   7
TORSDOF 9
ENDMDL
