MODEL 1
REMARK VINA RESULT:      -6.4      0.000      0.000
REMARK  12 active torsions:
REMARK  status: ('A' for Active; 'I' for Inactive)
REMARK    1  A    between atoms: O_2  and  C_16 
REMARK    2  A    between atoms: N_5  and  C_9 
REMARK    3  A    between atoms: N_6  and  C_13 
REMARK       I    between atoms: N_6  and  C_22 
REMARK    4  A    between atoms: C_9  and  C_12 
REMARK    5  A    between atoms: C_13  and  C_16 
REMARK    6  A    between atoms: C_13  and  C_21 
REMARK    7  A    between atoms: C_19  and  C_24 
REMARK    8  A    between atoms: C_21  and  C_33 
REMARK    9  A    between atoms: C_22  and  C_23 
REMARK   10  A    between atoms: C_27  and  C_30 
REMARK   11  A    between atoms: C_33  and  C_34 
REMARK   12  A    between atoms: C_34  and  C_35 
ROOT
HETATM    1  O   UNL     1      16.392   4.301  94.115  1.00  0.00    -0.350 OA
HETATM    2  N   UNL     1      14.653   2.673  92.557  1.00  0.00     0.147 N 
HETATM    3  C   UNL     1      14.546   4.139  92.547  1.00  0.00     0.283 C 
HETATM    4  C   UNL     1      15.182   2.215  93.849  1.00  0.00     0.283 C 
HETATM    5  C   UNL     1      15.909   4.758  92.850  1.00  0.00     0.178 C 
HETATM    6  C   UNL     1      16.528   2.879  94.122  1.00  0.00     0.178 C 
ENDROOT
BRANCH   2   7
HETATM    7  C   UNL     1      13.356   2.058  92.279  1.00  0.00     0.277 C 
BRANCH   7   8
HETATM    8  C   UNL     1      12.261   3.065  92.172  1.00  0.00     0.011 A 
HETATM    9  C   UNL     1      11.896   3.818  93.289  1.00  0.00    -0.002 A 
HETATM   10  C   UNL     1      10.871   4.758  93.190  1.00  0.00     0.008 A 
HETATM   11  C   UNL     1      10.213   4.947  91.975  1.00  0.00     0.042 A 
HETATM   12  C   UNL     1      10.577   4.196  90.860  1.00  0.00     0.008 A 
HETATM   13  C   UNL     1      11.602   3.255  90.958  1.00  0.00    -0.002 A 
BRANCH  11  14
HETATM   14  C   UNL     1       9.163   5.913  91.874  1.00  0.00    -0.059 C 
HETATM   15  C   UNL     1       8.281   6.726  91.788  1.00  0.00    -0.059 C 
BRANCH  15  16
HETATM   16  C   UNL     1       7.231   7.691  91.686  1.00  0.00     0.042 A 
HETATM   17  C   UNL     1       6.951   8.532  92.763  1.00  0.00     0.008 A 
HETATM   18  C   UNL     1       5.928   9.475  92.663  1.00  0.00     0.005 A 
HETATM   19  C   UNL     1       5.210   9.557  91.488  1.00  0.00     0.056 A 
HETATM   20  C   UNL     1       5.467   8.737  90.410  1.00  0.00     0.005 A 
HETATM   21  C   UNL     1       6.489   7.793  90.509  1.00  0.00     0.008 A 
BRANCH  19  22
HETATM   22  C   UNL     1       4.120  10.561  91.382  1.00  0.00     0.254 C 
HETATM   23  O   UNL     1       3.005  10.199  91.015  1.00  0.00    -0.268 OA
HETATM   24  N   UNL     1       4.452  11.860  91.741  1.00  0.00    -0.335 N 
HETATM   25  HN  UNL     1       5.388  12.080  92.059  1.00  0.00     0.164 HD
BRANCH  24  26
HETATM   26  C   UNL     1       3.499  12.940  91.715  1.00  0.00     0.166 C 
BRANCH  26  27
HETATM   27  C   UNL     1       3.827  14.046  92.724  1.00  0.00     0.138 C 
HETATM   28  C   UNL     1       2.581  14.759  93.237  1.00  0.00     0.034 C 
BRANCH  27  29
HETATM   29  O   UNL     1       4.530  13.487  93.833  1.00  0.00    -0.383 OA
HETATM   30  H   UNL     1       3.993  13.619  94.633  1.00  0.00     0.210 HD
ENDBRANCH  27  29
ENDBRANCH  26  27
BRANCH  26  31
HETATM   31  C   UNL     1       3.451  13.484  90.291  1.00  0.00     0.181 C 
HETATM   32  O   UNL     1       2.744  14.435  89.961  1.00  0.00    -0.294 OA
BRANCH  31  33
HETATM   33  C   UNL     1       4.933  13.803  89.717  1.00  0.00     0.138 C 
BRANCH  33  34
HETATM   34  C   UNL     1       5.102  12.746  88.796  1.00  0.00     0.208 C 
HETATM   35  O   UNL     1       6.140  12.129  88.878  1.00  0.00    -0.289 OA
BRANCH  34  36
HETATM   36  C   UNL     1       4.190  12.103  88.006  1.00  0.00     0.194 C 
HETATM   37  O   UNL     1       3.969  10.735  87.809  1.00  0.00    -0.185 OA
ENDBRANCH  34  36
ENDBRANCH  33  34
ENDBRANCH  31  33
ENDBRANCH  26  31
ENDBRANCH  24  26
ENDBRANCH  19  22
ENDBRANCH  15  16
ENDBRANCH  11  14
ENDBRANCH   7   8
ENDBRANCH   2   7
TORSDOF 12
ENDMDL
MODEL 2
REMARK VINA RESULT:      -5.4      2.553     12.658
REMARK  12 active torsions:
REMARK  status: ('A' for Active; 'I' for Inactive)
REMARK    1  A    between atoms: O_2  and  C_16 
REMARK    2  A    between atoms: N_5  and  C_9 
REMARK    3  A    between atoms: N_6  and  C_13 
REMARK       I    between atoms: N_6  and  C_22 
REMARK    4  A    between atoms: C_9  and  C_12 
REMARK    5  A    between atoms: C_13  and  C_16 
REMARK    6  A    between atoms: C_13  and  C_21 
REMARK    7  A    between atoms: C_19  and  C_24 
REMARK    8  A    between atoms: C_21  and  C_33 
REMARK    9  A    between atoms: C_22  and  C_23 
REMARK   10  A    between atoms: C_27  and  C_30 
REMARK   11  A    between atoms: C_33  and  C_34 
REMARK   12  A    between atoms: C_34  and  C_35 
ROOT
HETATM    1  O   UNL     1       2.749  15.086  93.776  1.00  0.00    -0.350 OA
HETATM    2  N   UNL     1       2.593  14.607  90.974  1.00  0.00     0.147 N 
HETATM    3  C   UNL     1       1.473  14.290  91.871  1.00  0.00     0.283 C 
HETATM    4  C   UNL     1       3.865  14.504  91.702  1.00  0.00     0.283 C 
HETATM    5  C   UNL     1       1.505  15.215  93.085  1.00  0.00     0.178 C 
HETATM    6  C   UNL     1       3.841  15.423  92.919  1.00  0.00     0.178 C 
ENDROOT
BRANCH   2   7
HETATM    7  C   UNL     1       2.588  13.725  89.808  1.00  0.00     0.277 C 
BRANCH   7   8
HETATM    8  C   UNL     1       3.566  12.608  89.937  1.00  0.00     0.011 A 
HETATM    9  C   UNL     1       4.854  12.746  89.418  1.00  0.00    -0.002 A 
HETATM   10  C   UNL     1       5.769  11.701  89.536  1.00  0.00     0.008 A 
HETATM   11  C   UNL     1       5.398  10.519  90.175  1.00  0.00     0.042 A 
HETATM   12  C   UNL     1       4.112  10.379  90.694  1.00  0.00     0.008 A 
HETATM   13  C   UNL     1       3.196  11.424  90.576  1.00  0.00    -0.002 A 
BRANCH  11  14
HETATM   14  C   UNL     1       6.338   9.447  90.298  1.00  0.00    -0.059 C 
HETATM   15  C   UNL     1       7.128   8.547  90.401  1.00  0.00    -0.059 C 
BRANCH  15  16
HETATM   16  C   UNL     1       8.068   7.477  90.525  1.00  0.00     0.042 A 
HETATM   17  C   UNL     1       9.172   7.418  89.673  1.00  0.00     0.008 A 
HETATM   18  C   UNL     1      10.090   6.375  89.796  1.00  0.00     0.005 A 
HETATM   19  C   UNL     1       9.885   5.416  90.766  1.00  0.00     0.056 A 
HETATM   20  C   UNL     1       8.802   5.453  91.619  1.00  0.00     0.005 A 
HETATM   21  C   UNL     1       7.883   6.495  91.497  1.00  0.00     0.008 A 
BRANCH  19  22
HETATM   22  C   UNL     1      10.863   4.305  90.895  1.00  0.00     0.254 C 
HETATM   23  O   UNL     1      10.593   3.209  90.408  1.00  0.00    -0.268 OA
HETATM   24  N   UNL     1      12.046   4.609  91.552  1.00  0.00    -0.335 N 
HETATM   25  HN  UNL     1      12.210   5.544  91.907  1.00  0.00     0.164 HD
BRANCH  24  26
HETATM   26  C   UNL     1      13.102   3.645  91.736  1.00  0.00     0.166 C 
BRANCH  26  27
HETATM   27  C   UNL     1      14.328   3.934  90.861  1.00  0.00     0.138 C 
HETATM   28  C   UNL     1      14.210   3.321  89.470  1.00  0.00     0.034 C 
BRANCH  27  29
HETATM   29  O   UNL     1      14.501   5.345  90.732  1.00  0.00    -0.383 OA
HETATM   30  H   UNL     1      15.433   5.520  90.518  1.00  0.00     0.210 HD
ENDBRANCH  27  29
ENDBRANCH  26  27
BRANCH  26  31
HETATM   31  C   UNL     1      13.468   3.631  93.216  1.00  0.00     0.181 C 
HETATM   32  O   UNL     1      12.640   3.787  94.112  1.00  0.00    -0.294 OA
BRANCH  31  33
HETATM   33  C   UNL     1      14.321   2.311  93.613  1.00  0.00     0.138 C 
BRANCH  33  34
HETATM   34  C   UNL     1      15.601   2.868  93.829  1.00  0.00     0.208 C 
HETATM   35  O   UNL     1      16.541   2.201  93.461  1.00  0.00    -0.289 OA
BRANCH  34  36
HETATM   36  C   UNL     1      15.972   4.151  94.122  1.00  0.00     0.194 C 
HETATM   37  O   UNL     1      16.241   5.231  93.274  1.00  0.00    -0.185 OA
ENDBRANCH  34  36
ENDBRANCH  33  34
ENDBRANCH  31  33
ENDBRANCH  26  31
ENDBRANCH  24  26
ENDBRANCH  19  22
ENDBRANCH  15  16
ENDBRANCH  11  14
ENDBRANCH   7   8
ENDBRANCH   2   7
TORSDOF 12
ENDMDL
MODEL 3
REMARK VINA RESULT:      -5.2      2.885     12.191
REMARK  12 active torsions:
REMARK  status: ('A' for Active; 'I' for Inactive)
REMARK    1  A    between atoms: O_2  and  C_16 
REMARK    2  A    between atoms: N_5  and  C_9 
REMARK    3  A    between atoms: N_6  and  C_13 
REMARK       I    between atoms: N_6  and  C_22 
REMARK    4  A    between atoms: C_9  and  C_12 
REMARK    5  A    between atoms: C_13  and  C_16 
REMARK    6  A    between atoms: C_13  and  C_21 
REMARK    7  A    between atoms: C_19  and  C_24 
REMARK    8  A    between atoms: C_21  and  C_33 
REMARK    9  A    between atoms: C_22  and  C_23 
REMARK   10  A    between atoms: C_27  and  C_30 
REMARK   11  A    between atoms: C_33  and  C_34 
REMARK   12  A    between atoms: C_34  and  C_35 
ROOT
HETATM    1  O   UNL     1       2.960  14.792  94.115  1.00  0.00    -0.350 OA
HETATM    2  N   UNL     1       2.674  14.844  91.284  1.00  0.00     0.147 N 
HETATM    3  C   UNL     1       1.712  14.135  92.140  1.00  0.00     0.283 C 
HETATM    4  C   UNL     1       3.997  14.865  91.924  1.00  0.00     0.283 C 
HETATM    5  C   UNL     1       1.662  14.794  93.516  1.00  0.00     0.178 C 
HETATM    6  C   UNL     1       3.894  15.505  93.304  1.00  0.00     0.178 C 
ENDROOT
BRANCH   2   7
HETATM    7  C   UNL     1       2.746  14.223  89.962  1.00  0.00     0.277 C 
BRANCH   7   8
HETATM    8  C   UNL     1       3.726  13.101  89.915  1.00  0.00     0.011 A 
HETATM    9  C   UNL     1       4.940  13.264  89.246  1.00  0.00    -0.002 A 
HETATM   10  C   UNL     1       5.856  12.214  89.198  1.00  0.00     0.008 A 
HETATM   11  C   UNL     1       5.560  11.002  89.822  1.00  0.00     0.042 A 
HETATM   12  C   UNL     1       4.349  10.838  90.490  1.00  0.00     0.008 A 
HETATM   13  C   UNL     1       3.431  11.888  90.537  1.00  0.00    -0.002 A 
BRANCH  11  14
HETATM   14  C   UNL     1       6.502   9.926  89.775  1.00  0.00    -0.059 C 
HETATM   15  C   UNL     1       7.293   9.022  89.735  1.00  0.00    -0.059 C 
BRANCH  15  16
HETATM   16  C   UNL     1       8.235   7.947  89.689  1.00  0.00     0.042 A 
HETATM   17  C   UNL     1       9.441   8.107  89.006  1.00  0.00     0.008 A 
HETATM   18  C   UNL     1      10.361   7.059  88.963  1.00  0.00     0.005 A 
HETATM   19  C   UNL     1      10.055   5.877  89.603  1.00  0.00     0.056 A 
HETATM   20  C   UNL     1       8.869   5.694  90.284  1.00  0.00     0.005 A 
HETATM   21  C   UNL     1       7.949   6.741  90.328  1.00  0.00     0.008 A 
BRANCH  19  22
HETATM   22  C   UNL     1      11.034   4.760  89.555  1.00  0.00     0.254 C 
HETATM   23  O   UNL     1      11.161   4.118  88.516  1.00  0.00    -0.268 OA
HETATM   24  N   UNL     1      11.764   4.541  90.716  1.00  0.00    -0.335 N 
HETATM   25  HN  UNL     1      11.622   5.129  91.529  1.00  0.00     0.164 HD
BRANCH  24  26
HETATM   26  C   UNL     1      12.767   3.513  90.818  1.00  0.00     0.166 C 
BRANCH  26  27
HETATM   27  C   UNL     1      14.178   4.078  91.024  1.00  0.00     0.138 C 
HETATM   28  C   UNL     1      15.263   3.148  90.493  1.00  0.00     0.034 C 
BRANCH  27  29
HETATM   29  O   UNL     1      14.287   5.340  90.365  1.00  0.00    -0.383 OA
HETATM   30  H   UNL     1      13.888   5.259  89.483  1.00  0.00     0.210 HD
ENDBRANCH  27  29
ENDBRANCH  26  27
BRANCH  26  31
HETATM   31  C   UNL     1      12.369   2.586  91.962  1.00  0.00     0.181 C 
HETATM   32  O   UNL     1      12.842   1.460  92.107  1.00  0.00    -0.294 OA
BRANCH  31  33
HETATM   33  C   UNL     1      12.497   3.318  93.403  1.00  0.00     0.138 C 
BRANCH  33  34
HETATM   34  C   UNL     1      11.310   4.083  93.427  1.00  0.00     0.208 C 
HETATM   35  O   UNL     1      10.322   3.546  92.981  1.00  0.00    -0.289 OA
BRANCH  34  36
HETATM   36  C   UNL     1      11.001   5.219  94.122  1.00  0.00     0.194 C 
HETATM   37  O   UNL     1       9.959   6.136  93.940  1.00  0.00    -0.185 OA
ENDBRANCH  34  36
ENDBRANCH  33  34
ENDBRANCH  31  33
ENDBRANCH  26  31
ENDBRANCH  24  26
ENDBRANCH  19  22
ENDBRANCH  15  16
ENDBRANCH  11  14
ENDBRANCH   7   8
ENDBRANCH   2   7
TORSDOF 12
ENDMDL
MODEL 4
REMARK VINA RESULT:      -3.6      2.618     12.167
REMARK  12 active torsions:
REMARK  status: ('A' for Active; 'I' for Inactive)
REMARK    1  A    between atoms: O_2  and  C_16 
REMARK    2  A    between atoms: N_5  and  C_9 
REMARK    3  A    between atoms: N_6  and  C_13 
REMARK       I    between atoms: N_6  and  C_22 
REMARK    4  A    between atoms: C_9  and  C_12 
REMARK    5  A    between atoms: C_13  and  C_16 
REMARK    6  A    between atoms: C_13  and  C_21 
REMARK    7  A    between atoms: C_19  and  C_24 
REMARK    8  A    between atoms: C_21  and  C_33 
REMARK    9  A    between atoms: C_22  and  C_23 
REMARK   10  A    between atoms: C_27  and  C_30 
REMARK   11  A    between atoms: C_33  and  C_34 
REMARK   12  A    between atoms: C_34  and  C_35 
ROOT
HETATM    1  O   UNL     1       2.325  14.983  94.047  1.00  0.00    -0.350 OA
HETATM    2  N   UNL     1       2.657  14.567  91.251  1.00  0.00     0.147 N 
HETATM    3  C   UNL     1       1.560  13.935  91.996  1.00  0.00     0.283 C 
HETATM    4  C   UNL     1       3.808  14.785  92.138  1.00  0.00     0.283 C 
HETATM    5  C   UNL     1       1.189  14.796  93.201  1.00  0.00     0.178 C 
HETATM    6  C   UNL     1       3.385  15.625  93.338  1.00  0.00     0.178 C 
ENDROOT
BRANCH   2   7
HETATM    7  C   UNL     1       3.036  13.753  90.097  1.00  0.00     0.277 C 
BRANCH   7   8
HETATM    8  C   UNL     1       4.050  12.716  90.442  1.00  0.00     0.011 A 
HETATM    9  C   UNL     1       4.072  12.163  91.723  1.00  0.00    -0.002 A 
HETATM   10  C   UNL     1       5.021  11.194  92.048  1.00  0.00     0.008 A 
HETATM   11  C   UNL     1       5.946  10.778  91.091  1.00  0.00     0.042 A 
HETATM   12  C   UNL     1       5.925  11.330  89.812  1.00  0.00     0.008 A 
HETATM   13  C   UNL     1       4.976  12.299  89.487  1.00  0.00    -0.002 A 
BRANCH  11  14
HETATM   14  C   UNL     1       6.919   9.783  91.424  1.00  0.00    -0.059 C 
HETATM   15  C   UNL     1       7.736   8.946  91.703  1.00  0.00    -0.059 C 
BRANCH  15  16
HETATM   16  C   UNL     1       8.708   7.951  92.034  1.00  0.00     0.042 A 
HETATM   17  C   UNL     1       9.029   7.709  93.370  1.00  0.00     0.008 A 
HETATM   18  C   UNL     1       9.975   6.736  93.693  1.00  0.00     0.005 A 
HETATM   19  C   UNL     1      10.578   6.029  92.675  1.00  0.00     0.056 A 
HETATM   20  C   UNL     1      10.279   6.250  91.347  1.00  0.00     0.005 A 
HETATM   21  C   UNL     1       9.333   7.222  91.023  1.00  0.00     0.008 A 
BRANCH  19  22
HETATM   22  C   UNL     1      11.588   4.994  93.020  1.00  0.00     0.254 C 
HETATM   23  O   UNL     1      11.482   4.382  94.080  1.00  0.00    -0.268 OA
HETATM   24  N   UNL     1      12.585   4.780  92.078  1.00  0.00    -0.335 N 
HETATM   25  HN  UNL     1      12.594   5.307  91.213  1.00  0.00     0.164 HD
BRANCH  24  26
HETATM   26  C   UNL     1      13.621   3.795  92.256  1.00  0.00     0.166 C 
BRANCH  26  27
HETATM   27  C   UNL     1      14.046   3.639  93.722  1.00  0.00     0.138 C 
HETATM   28  C   UNL     1      14.504   2.222  94.049  1.00  0.00     0.034 C 
BRANCH  27  29
HETATM   29  O   UNL     1      15.109   4.547  94.010  1.00  0.00    -0.383 OA
HETATM   30  H   UNL     1      15.199   5.158  93.260  1.00  0.00     0.210 HD
ENDBRANCH  27  29
ENDBRANCH  26  27
BRANCH  26  31
HETATM   31  C   UNL     1      13.113   2.476  91.683  1.00  0.00     0.181 C 
HETATM   32  O   UNL     1      13.191   1.408  92.288  1.00  0.00    -0.294 OA
BRANCH  31  33
HETATM   33  C   UNL     1      11.580   2.593  91.169  1.00  0.00     0.138 C 
BRANCH  33  34
HETATM   34  C   UNL     1      11.754   3.278  89.946  1.00  0.00     0.208 C 
HETATM   35  O   UNL     1      12.889   3.359  89.537  1.00  0.00    -0.289 OA
BRANCH  34  36
HETATM   36  C   UNL     1      10.843   3.624  88.986  1.00  0.00     0.194 C 
HETATM   37  O   UNL     1       9.827   2.869  88.388  1.00  0.00    -0.185 OA
ENDBRANCH  34  36
ENDBRANCH  33  34
ENDBRANCH  31  33
ENDBRANCH  26  31
ENDBRANCH  24  26
ENDBRANCH  19  22
ENDBRANCH  15  16
ENDBRANCH  11  14
ENDBRANCH   7   8
ENDBRANCH   2   7
TORSDOF 12
ENDMDL
