MODEL 1
REMARK VINA RESULT:      -7.5      0.000      0.000
REMARK  9 active torsions:
REMARK  status: ('A' for Active; 'I' for Inactive)
REMARK    1  A    between atoms: N_3  and  C_6 
REMARK    2  A    between atoms: C_6  and  C_9 
REMARK    3  A    between atoms: C_14  and  C_17 
REMARK       I    between atoms: N_26  and  C_15 
REMARK    4  A    between atoms: C_15  and  C_16 
REMARK    5  A    between atoms: C_20  and  C_23 
REMARK    6  A    between atoms: OG1_24  and  CB_28 
REMARK    7  A    between atoms: N_26  and  CA_27 
REMARK    8  A    between atoms: CA_27  and  CB_28 
REMARK    9  A    between atoms: CA_27  and  C_30 
ROOT
HETATM    1  O   UNK A   0       2.040   8.099  87.818  1.00  0.00    -0.388 OA
HETATM    2  N   UNK A   0       4.826   7.540  87.660  1.00  0.00     0.096 N 
HETATM    3  C   UNK A   0       4.324   8.917  87.759  1.00  0.00     0.299 C 
HETATM    4  C   UNK A   0       3.831   6.688  86.992  1.00  0.00     0.299 C 
HETATM    5  C   UNK A   0       2.986   8.928  88.495  1.00  0.00     0.198 C 
HETATM    6  C   UNK A   0       2.506   6.752  87.745  1.00  0.00     0.198 C 
ENDROOT
BRANCH   2   7
HETATM    7  C   UNK A   0       6.102   7.504  86.948  1.00  0.00     0.311 C 
BRANCH   7   8
HETATM    8  C   UNK A   0       7.194   6.909  87.770  1.00  0.00    -0.030 A 
HETATM    9  C   UNK A   0       6.983   6.647  89.125  1.00  0.00     0.010 A 
HETATM   10  C   UNK A   0       8.005   6.093  89.895  1.00  0.00     0.021 A 
HETATM   11  C   UNK A   0       9.236   5.798  89.311  1.00  0.00     0.018 A 
HETATM   12  C   UNK A   0       9.448   6.059  87.959  1.00  0.00     0.021 A 
HETATM   13  C   UNK A   0       8.427   6.615  87.188  1.00  0.00     0.010 A 
BRANCH  11  14
HETATM   14  C   UNK A   0      10.284   5.228  90.101  1.00  0.00    -0.061 C 
HETATM   15  C   UNK A   0      11.164   4.748  90.765  1.00  0.00    -0.061 C 
BRANCH  15  16
HETATM   16  C   UNK A   0      12.211   4.178  91.554  1.00  0.00     0.018 A 
HETATM   17  C   UNK A   0      11.957   3.785  92.868  1.00  0.00     0.022 A 
HETATM   18  C   UNK A   0      12.979   3.226  93.637  1.00  0.00     0.018 A 
HETATM   19  C   UNK A   0      14.229   3.073  93.075  1.00  0.00     0.032 A 
HETATM   20  C   UNK A   0      14.505   3.454  91.779  1.00  0.00     0.018 A 
HETATM   21  C   UNK A   0      13.485   4.013  91.009  1.00  0.00     0.022 A 
BRANCH  19  22
HETATM   22  C   UNK A   0      15.317   2.480  93.895  1.00  0.00     0.252 C 
HETATM   23  O   UNK A   0      16.485   2.754  93.631  1.00  0.00    -0.268 OA
ENDBRANCH  19  22
ENDBRANCH  15  16
ENDBRANCH  11  14
ENDBRANCH   7   8
ENDBRANCH   2   7
TORSDOF 9
ENDMDL
MODEL 2
REMARK VINA RESULT:      -7.5      0.183      1.436
REMARK  9 active torsions:
REMARK  status: ('A' for Active; 'I' for Inactive)
REMARK    1  A    between atoms: N_3  and  C_6 
REMARK    2  A    between atoms: C_6  and  C_9 
REMARK    3  A    between atoms: C_14  and  C_17 
REMARK       I    between atoms: N_26  and  C_15 
REMARK    4  A    between atoms: C_15  and  C_16 
REMARK    5  A    between atoms: C_20  and  C_23 
REMARK    6  A    between atoms: OG1_24  and  CB_28 
REMARK    7  A    between atoms: N_26  and  CA_27 
REMARK    8  A    between atoms: CA_27  and  CB_28 
REMARK    9  A    between atoms: CA_27  and  C_30 
ROOT
HETATM    1  O   UNK A   0       1.898   8.250  87.869  1.00  0.00    -0.388 OA
HETATM    2  N   UNK A   0       4.670   7.632  87.679  1.00  0.00     0.096 N 
HETATM    3  C   UNK A   0       4.198   9.020  87.781  1.00  0.00     0.299 C 
HETATM    4  C   UNK A   0       3.650   6.801  87.025  1.00  0.00     0.299 C 
HETATM    5  C   UNK A   0       2.869   9.060  88.533  1.00  0.00     0.198 C 
HETATM    6  C   UNK A   0       2.336   6.893  87.793  1.00  0.00     0.198 C 
ENDROOT
BRANCH   2   7
HETATM    7  C   UNK A   0       5.937   7.569  86.953  1.00  0.00     0.311 C 
BRANCH   7   8
HETATM    8  C   UNK A   0       7.030   6.968  87.770  1.00  0.00    -0.030 A 
HETATM    9  C   UNK A   0       8.268   6.698  87.185  1.00  0.00     0.010 A 
HETATM   10  C   UNK A   0       9.291   6.134  87.947  1.00  0.00     0.021 A 
HETATM   11  C   UNK A   0       9.076   5.842  89.294  1.00  0.00     0.018 A 
HETATM   12  C   UNK A   0       7.840   6.112  89.879  1.00  0.00     0.021 A 
HETATM   13  C   UNK A   0       6.817   6.675  89.117  1.00  0.00     0.010 A 
BRANCH  11  14
HETATM   14  C   UNK A   0      10.126   5.266  90.077  1.00  0.00    -0.061 C 
HETATM   15  C   UNK A   0      11.008   4.782  90.735  1.00  0.00    -0.061 C 
BRANCH  15  16
HETATM   16  C   UNK A   0      12.057   4.206  91.517  1.00  0.00     0.018 A 
HETATM   17  C   UNK A   0      13.313   3.994  90.949  1.00  0.00     0.022 A 
HETATM   18  C   UNK A   0      14.337   3.434  91.714  1.00  0.00     0.018 A 
HETATM   19  C   UNK A   0      14.082   3.100  93.028  1.00  0.00     0.032 A 
HETATM   20  C   UNK A   0      12.848   3.299  93.611  1.00  0.00     0.018 A 
HETATM   21  C   UNK A   0      11.824   3.858  92.848  1.00  0.00     0.022 A 
BRANCH  19  22
HETATM   22  C   UNK A   0      15.172   2.502  93.841  1.00  0.00     0.252 C 
HETATM   23  O   UNK A   0      16.309   2.957  93.747  1.00  0.00    -0.268 OA
ENDBRANCH  19  22
ENDBRANCH  15  16
ENDBRANCH  11  14
ENDBRANCH   7   8
ENDBRANCH   2   7
TORSDOF 9
ENDMDL
MODEL 3
REMARK VINA RESULT:      -6.9      1.546      2.322
REMARK  9 active torsions:
REMARK  status: ('A' for Active; 'I' for Inactive)
REMARK    1  A    between atoms: N_3  and  C_6 
REMARK    2  A    between atoms: C_6  and  C_9 
REMARK    3  A    between atoms: C_14  and  C_17 
REMARK       I    between atoms: N_26  and  C_15 
REMARK    4  A    between atoms: C_15  and  C_16 
REMARK    5  A    between atoms: C_20  and  C_23 
REMARK    6  A    between atoms: OG1_24  and  CB_28 
REMARK    7  A    between atoms: N_26  and  CA_27 
REMARK    8  A    between atoms: CA_27  and  CB_28 
REMARK    9  A    between atoms: CA_27  and  C_30 
ROOT
HETATM    1  O   UNK A   0       2.715  11.195  89.706  1.00  0.00    -0.388 OA
HETATM    2  N   UNK A   0       4.588   9.270  88.764  1.00  0.00     0.096 N 
HETATM    3  C   UNK A   0       3.812  10.104  87.836  1.00  0.00     0.299 C 
HETATM    4  C   UNK A   0       3.832   9.063  90.007  1.00  0.00     0.299 C 
HETATM    5  C   UNK A   0       3.455  11.428  88.506  1.00  0.00     0.198 C 
HETATM    6  C   UNK A   0       3.475  10.410  90.626  1.00  0.00     0.198 C 
ENDROOT
BRANCH   2   7
HETATM    7  C   UNK A   0       4.932   7.991  88.145  1.00  0.00     0.311 C 
BRANCH   7   8
HETATM    8  C   UNK A   0       6.134   7.364  88.767  1.00  0.00    -0.030 A 
HETATM    9  C   UNK A   0       7.386   7.960  88.618  1.00  0.00     0.010 A 
HETATM   10  C   UNK A   0       8.511   7.374  89.197  1.00  0.00     0.021 A 
HETATM   11  C   UNK A   0       8.383   6.193  89.928  1.00  0.00     0.018 A 
HETATM   12  C   UNK A   0       7.132   5.597  90.078  1.00  0.00     0.021 A 
HETATM   13  C   UNK A   0       6.007   6.183  89.498  1.00  0.00     0.010 A 
BRANCH  11  14
HETATM   14  C   UNK A   0       9.536   5.593  90.524  1.00  0.00    -0.061 C 
HETATM   15  C   UNK A   0      10.506   5.089  91.026  1.00  0.00    -0.061 C 
BRANCH  15  16
HETATM   16  C   UNK A   0      11.658   4.489  91.623  1.00  0.00     0.018 A 
HETATM   17  C   UNK A   0      12.812   4.290  90.863  1.00  0.00     0.022 A 
HETATM   18  C   UNK A   0      13.937   3.707  91.446  1.00  0.00     0.018 A 
HETATM   19  C   UNK A   0      13.884   3.338  92.774  1.00  0.00     0.032 A 
HETATM   20  C   UNK A   0      12.756   3.523  93.545  1.00  0.00     0.018 A 
HETATM   21  C   UNK A   0      11.630   4.106  92.963  1.00  0.00     0.022 A 
BRANCH  19  22
HETATM   22  C   UNK A   0      15.082   2.715  93.394  1.00  0.00     0.252 C 
HETATM   23  O   UNK A   0      15.803   3.394  94.120  1.00  0.00    -0.268 OA
ENDBRANCH  19  22
ENDBRANCH  15  16
ENDBRANCH  11  14
ENDBRANCH   7   8
ENDBRANCH   2   7
TORSDOF 9
ENDMDL
MODEL 4
REMARK VINA RESULT:      -6.9      1.497      1.899
REMARK  9 active torsions:
REMARK  status: ('A' for Active; 'I' for Inactive)
REMARK    1  A    between atoms: N_3  and  C_6 
REMARK    2  A    between atoms: C_6  and  C_9 
REMARK    3  A    between atoms: C_14  and  C_17 
REMARK       I    between atoms: N_26  and  C_15 
REMARK    4  A    between atoms: C_15  and  C_16 
REMARK    5  A    between atoms: C_20  and  C_23 
REMARK    6  A    between atoms: OG1_24  and  CB_28 
REMARK    7  A    between atoms: N_26  and  CA_27 
REMARK    8  A    between atoms: CA_27  and  CB_28 
REMARK    9  A    between atoms: CA_27  and  C_30 
ROOT
HETATM    1  O   UNK A   0       2.720  11.146  89.685  1.00  0.00    -0.388 OA
HETATM    2  N   UNK A   0       4.569   9.186  88.768  1.00  0.00     0.096 N 
HETATM    3  C   UNK A   0       3.818  10.031  87.830  1.00  0.00     0.299 C 
HETATM    4  C   UNK A   0       3.797   8.996  90.004  1.00  0.00     0.299 C 
HETATM    5  C   UNK A   0       3.477  11.363  88.493  1.00  0.00     0.198 C 
HETATM    6  C   UNK A   0       3.457  10.351  90.615  1.00  0.00     0.198 C 
ENDROOT
BRANCH   2   7
HETATM    7  C   UNK A   0       4.898   7.899  88.158  1.00  0.00     0.311 C 
BRANCH   7   8
HETATM    8  C   UNK A   0       6.117   7.282  88.754  1.00  0.00    -0.030 A 
HETATM    9  C   UNK A   0       6.005   6.126  89.527  1.00  0.00     0.010 A 
HETATM   10  C   UNK A   0       7.145   5.549  90.087  1.00  0.00     0.021 A 
HETATM   11  C   UNK A   0       8.395   6.127  89.872  1.00  0.00     0.018 A 
HETATM   12  C   UNK A   0       8.508   7.281  89.100  1.00  0.00     0.021 A 
HETATM   13  C   UNK A   0       7.369   7.859  88.540  1.00  0.00     0.010 A 
BRANCH  11  14
HETATM   14  C   UNK A   0       9.565   5.534  90.445  1.00  0.00    -0.061 C 
HETATM   15  C   UNK A   0      10.547   5.034  90.926  1.00  0.00    -0.061 C 
BRANCH  15  16
HETATM   16  C   UNK A   0      11.715   4.441  91.497  1.00  0.00     0.018 A 
HETATM   17  C   UNK A   0      11.690   3.983  92.815  1.00  0.00     0.022 A 
HETATM   18  C   UNK A   0      12.830   3.402  93.371  1.00  0.00     0.018 A 
HETATM   19  C   UNK A   0      13.967   3.291  92.599  1.00  0.00     0.032 A 
HETATM   20  C   UNK A   0      14.017   3.736  91.294  1.00  0.00     0.018 A 
HETATM   21  C   UNK A   0      12.878   4.318  90.737  1.00  0.00     0.022 A 
BRANCH  19  22
HETATM   22  C   UNK A   0      15.181   2.674  93.193  1.00  0.00     0.252 C 
HETATM   23  O   UNK A   0      15.985   3.385  93.789  1.00  0.00    -0.268 OA
ENDBRANCH  19  22
ENDBRANCH  15  16
ENDBRANCH  11  14
ENDBRANCH   7   8
ENDBRANCH   2   7
TORSDOF 9
ENDMDL
MODEL 5
REMARK VINA RESULT:      -6.6      3.386     10.345
REMARK  9 active torsions:
REMARK  status: ('A' for Active; 'I' for Inactive)
REMARK    1  A    between atoms: N_3  and  C_6 
REMARK    2  A    between atoms: C_6  and  C_9 
REMARK    3  A    between atoms: C_14  and  C_17 
REMARK       I    between atoms: N_26  and  C_15 
REMARK    4  A    between atoms: C_15  and  C_16 
REMARK    5  A    between atoms: C_20  and  C_23 
REMARK    6  A    between atoms: OG1_24  and  CB_28 
REMARK    7  A    between atoms: N_26  and  CA_27 
REMARK    8  A    between atoms: CA_27  and  CB_28 
REMARK    9  A    between atoms: CA_27  and  C_30 
ROOT
HETATM    1  O   UNK A   0      16.215   3.144  93.569  1.00  0.00    -0.388 OA
HETATM    2  N   UNK A   0      13.478   2.881  92.834  1.00  0.00     0.096 N 
HETATM    3  C   UNK A   0      14.305   1.707  93.147  1.00  0.00     0.299 C 
HETATM    4  C   UNK A   0      14.318   3.960  92.296  1.00  0.00     0.299 C 
HETATM    5  C   UNK A   0      15.411   2.101  94.123  1.00  0.00     0.198 C 
HETATM    6  C   UNK A   0      15.423   4.300  93.291  1.00  0.00     0.198 C 
ENDROOT
BRANCH   2   7
HETATM    7  C   UNK A   0      12.417   2.529  91.891  1.00  0.00     0.311 C 
BRANCH   7   8
HETATM    8  C   UNK A   0      11.558   3.697  91.542  1.00  0.00    -0.030 A 
HETATM    9  C   UNK A   0      11.375   4.051  90.205  1.00  0.00     0.010 A 
HETATM   10  C   UNK A   0      10.574   5.144  89.877  1.00  0.00     0.021 A 
HETATM   11  C   UNK A   0       9.954   5.881  90.886  1.00  0.00     0.018 A 
HETATM   12  C   UNK A   0      10.135   5.527  92.221  1.00  0.00     0.021 A 
HETATM   13  C   UNK A   0      10.937   4.435  92.550  1.00  0.00     0.010 A 
BRANCH  11  14
HETATM   14  C   UNK A   0       9.130   7.001  90.549  1.00  0.00    -0.061 C 
HETATM   15  C   UNK A   0       8.438   7.943  90.265  1.00  0.00    -0.061 C 
BRANCH  15  16
HETATM   16  C   UNK A   0       7.615   9.062  89.928  1.00  0.00     0.018 A 
HETATM   17  C   UNK A   0       6.225   8.938  89.955  1.00  0.00     0.022 A 
HETATM   18  C   UNK A   0       5.423  10.031  89.628  1.00  0.00     0.018 A 
HETATM   19  C   UNK A   0       6.026  11.222  89.283  1.00  0.00     0.032 A 
HETATM   20  C   UNK A   0       7.397  11.370  89.249  1.00  0.00     0.018 A 
HETATM   21  C   UNK A   0       8.201  10.278  89.575  1.00  0.00     0.022 A 
BRANCH  19  22
HETATM   22  C   UNK A   0       5.171  12.385  88.933  1.00  0.00     0.252 C 
HETATM   23  O   UNK A   0       4.564  12.384  87.865  1.00  0.00    -0.268 OA
ENDBRANCH  19  22
ENDBRANCH  15  16
ENDBRANCH  11  14
ENDBRANCH   7   8
ENDBRANCH   2   7
TORSDOF 9
ENDMDL
MODEL 6
REMARK VINA RESULT:      -6.6      3.900     10.401
REMARK  9 active torsions:
REMARK  status: ('A' for Active; 'I' for Inactive)
REMARK    1  A    between atoms: N_3  and  C_6 
REMARK    2  A    between atoms: C_6  and  C_9 
REMARK    3  A    between atoms: C_14  and  C_17 
REMARK       I    between atoms: N_26  and  C_15 
REMARK    4  A    between atoms: C_15  and  C_16 
REMARK    5  A    between atoms: C_20  and  C_23 
REMARK    6  A    between atoms: OG1_24  and  CB_28 
REMARK    7  A    between atoms: N_26  and  CA_27 
REMARK    8  A    between atoms: CA_27  and  CB_28 
REMARK    9  A    between atoms: CA_27  and  C_30 
ROOT
HETATM    1  O   UNK A   0      14.605   3.379  92.115  1.00  0.00    -0.388 OA
HETATM    2  N   UNK A   0      11.881   4.201  92.174  1.00  0.00     0.096 N 
HETATM    3  C   UNK A   0      12.446   3.339  93.221  1.00  0.00     0.299 C 
HETATM    4  C   UNK A   0      12.591   3.984  90.906  1.00  0.00     0.299 C 
HETATM    5  C   UNK A   0      13.943   3.607  93.360  1.00  0.00     0.198 C 
HETATM    6  C   UNK A   0      14.083   4.235  91.098  1.00  0.00     0.198 C 
ENDROOT
BRANCH   2   7
HETATM    7  C   UNK A   0      10.449   3.954  92.017  1.00  0.00     0.311 C 
BRANCH   7   8
HETATM    8  C   UNK A   0       9.685   5.202  91.732  1.00  0.00    -0.030 A 
HETATM    9  C   UNK A   0       9.848   6.321  92.550  1.00  0.00     0.010 A 
HETATM   10  C   UNK A   0       9.132   7.488  92.286  1.00  0.00     0.021 A 
HETATM   11  C   UNK A   0       8.255   7.537  91.203  1.00  0.00     0.018 A 
HETATM   12  C   UNK A   0       8.091   6.421  90.385  1.00  0.00     0.021 A 
HETATM   13  C   UNK A   0       8.806   5.253  90.649  1.00  0.00     0.010 A 
BRANCH  11  14
HETATM   14  C   UNK A   0       7.523   8.735  90.930  1.00  0.00    -0.061 C 
HETATM   15  C   UNK A   0       6.907   9.743  90.702  1.00  0.00    -0.061 C 
BRANCH  15  16
HETATM   16  C   UNK A   0       6.176  10.941  90.430  1.00  0.00     0.018 A 
HETATM   17  C   UNK A   0       5.275  11.436  91.373  1.00  0.00     0.022 A 
HETATM   18  C   UNK A   0       4.564  12.606  91.108  1.00  0.00     0.018 A 
HETATM   19  C   UNK A   0       4.769  13.255  89.908  1.00  0.00     0.032 A 
HETATM   20  C   UNK A   0       5.654  12.785  88.960  1.00  0.00     0.018 A 
HETATM   21  C   UNK A   0       6.365  11.615  89.223  1.00  0.00     0.022 A 
BRANCH  19  22
HETATM   22  C   UNK A   0       4.010  14.500  89.626  1.00  0.00     0.252 C 
HETATM   23  O   UNK A   0       4.581  15.584  89.714  1.00  0.00    -0.268 OA
ENDBRANCH  19  22
ENDBRANCH  15  16
ENDBRANCH  11  14
ENDBRANCH   7   8
ENDBRANCH   2   7
TORSDOF 9
ENDMDL
MODEL 7
REMARK VINA RESULT:      -6.6      1.278      1.707
REMARK  9 active torsions:
REMARK  status: ('A' for Active; 'I' for Inactive)
REMARK    1  A    between atoms: N_3  and  C_6 
REMARK    2  A    between atoms: C_6  and  C_9 
REMARK    3  A    between atoms: C_14  and  C_17 
REMARK       I    between atoms: N_26  and  C_15 
REMARK    4  A    between atoms: C_15  and  C_16 
REMARK    5  A    between atoms: C_20  and  C_23 
REMARK    6  A    between atoms: OG1_24  and  CB_28 
REMARK    7  A    between atoms: N_26  and  CA_27 
REMARK    8  A    between atoms: CA_27  and  CB_28 
REMARK    9  A    between atoms: CA_27  and  C_30 
ROOT
HETATM    1  O   UNK A   0       1.295   8.152  88.876  1.00  0.00    -0.388 OA
HETATM    2  N   UNK A   0       4.133   8.283  89.061  1.00  0.00     0.096 N 
HETATM    3  C   UNK A   0       3.268   8.900  90.076  1.00  0.00     0.299 C 
HETATM    4  C   UNK A   0       3.447   8.261  87.761  1.00  0.00     0.299 C 
HETATM    5  C   UNK A   0       1.941   8.149  90.150  1.00  0.00     0.198 C 
HETATM    6  C   UNK A   0       2.117   7.526  87.890  1.00  0.00     0.198 C 
ENDROOT
BRANCH   2   7
HETATM    7  C   UNK A   0       5.407   8.993  88.965  1.00  0.00     0.311 C 
BRANCH   7   8
HETATM    8  C   UNK A   0       6.548   8.186  89.482  1.00  0.00    -0.030 A 
HETATM    9  C   UNK A   0       6.691   6.853  89.092  1.00  0.00     0.010 A 
HETATM   10  C   UNK A   0       7.757   6.096  89.576  1.00  0.00     0.021 A 
HETATM   11  C   UNK A   0       8.681   6.672  90.448  1.00  0.00     0.018 A 
HETATM   12  C   UNK A   0       8.539   8.002  90.837  1.00  0.00     0.021 A 
HETATM   13  C   UNK A   0       7.473   8.759  90.354  1.00  0.00     0.010 A 
BRANCH  11  14
HETATM   14  C   UNK A   0       9.776   5.895  90.943  1.00  0.00    -0.061 C 
HETATM   15  C   UNK A   0      10.696   5.242  91.358  1.00  0.00    -0.061 C 
BRANCH  15  16
HETATM   16  C   UNK A   0      11.791   4.466  91.852  1.00  0.00     0.018 A 
HETATM   17  C   UNK A   0      11.788   4.020  93.174  1.00  0.00     0.022 A 
HETATM   18  C   UNK A   0      12.855   3.261  93.655  1.00  0.00     0.018 A 
HETATM   19  C   UNK A   0      13.899   2.964  92.804  1.00  0.00     0.032 A 
HETATM   20  C   UNK A   0      13.925   3.393  91.493  1.00  0.00     0.018 A 
HETATM   21  C   UNK A   0      12.859   4.153  91.011  1.00  0.00     0.022 A 
BRANCH  19  22
HETATM   22  C   UNK A   0      15.036   2.157  93.317  1.00  0.00     0.252 C 
HETATM   23  O   UNK A   0      15.973   2.725  93.871  1.00  0.00    -0.268 OA
ENDBRANCH  19  22
ENDBRANCH  15  16
ENDBRANCH  11  14
ENDBRANCH   7   8
ENDBRANCH   2   7
TORSDOF 9
ENDMDL
MODEL 8
REMARK VINA RESULT:      -6.3      3.453      4.366
REMARK  9 active torsions:
REMARK  status: ('A' for Active; 'I' for Inactive)
REMARK    1  A    between atoms: N_3  and  C_6 
REMARK    2  A    between atoms: C_6  and  C_9 
REMARK    3  A    between atoms: C_14  and  C_17 
REMARK       I    between atoms: N_26  and  C_15 
REMARK    4  A    between atoms: C_15  and  C_16 
REMARK    5  A    between atoms: C_20  and  C_23 
REMARK    6  A    between atoms: OG1_24  and  CB_28 
REMARK    7  A    between atoms: N_26  and  CA_27 
REMARK    8  A    between atoms: CA_27  and  CB_28 
REMARK    9  A    between atoms: CA_27  and  C_30 
ROOT
HETATM    1  O   UNK A   0       4.216  15.190  90.174  1.00  0.00    -0.388 OA
HETATM    2  N   UNK A   0       4.889  12.484  89.605  1.00  0.00     0.096 N 
HETATM    3  C   UNK A   0       4.918  13.518  88.562  1.00  0.00     0.299 C 
HETATM    4  C   UNK A   0       3.893  12.830  90.629  1.00  0.00     0.299 C 
HETATM    5  C   UNK A   0       5.205  14.879  89.190  1.00  0.00     0.198 C 
HETATM    6  C   UNK A   0       4.202  14.206  91.208  1.00  0.00     0.198 C 
ENDROOT
BRANCH   2   7
HETATM    7  C   UNK A   0       4.606  11.172  89.026  1.00  0.00     0.311 C 
BRANCH   7   8
HETATM    8  C   UNK A   0       5.623  10.151  89.407  1.00  0.00    -0.030 A 
HETATM    9  C   UNK A   0       5.255   8.810  89.522  1.00  0.00     0.010 A 
HETATM   10  C   UNK A   0       6.206   7.854  89.881  1.00  0.00     0.021 A 
HETATM   11  C   UNK A   0       7.524   8.240  90.122  1.00  0.00     0.018 A 
HETATM   12  C   UNK A   0       7.893   9.579  90.007  1.00  0.00     0.021 A 
HETATM   13  C   UNK A   0       6.942  10.535  89.649  1.00  0.00     0.010 A 
BRANCH  11  14
HETATM   14  C   UNK A   0       8.499   7.259  90.487  1.00  0.00    -0.061 C 
HETATM   15  C   UNK A   0       9.319   6.435  90.794  1.00  0.00    -0.061 C 
BRANCH  15  16
HETATM   16  C   UNK A   0      10.295   5.455  91.158  1.00  0.00     0.018 A 
HETATM   17  C   UNK A   0      10.544   5.188  92.505  1.00  0.00     0.022 A 
HETATM   18  C   UNK A   0      11.493   4.230  92.860  1.00  0.00     0.018 A 
HETATM   19  C   UNK A   0      12.172   3.561  91.863  1.00  0.00     0.032 A 
HETATM   20  C   UNK A   0      11.944   3.808  90.525  1.00  0.00     0.018 A 
HETATM   21  C   UNK A   0      10.994   4.765  90.168  1.00  0.00     0.022 A 
BRANCH  19  22
HETATM   22  C   UNK A   0      13.185   2.543  92.242  1.00  0.00     0.252 C 
HETATM   23  O   UNK A   0      13.820   2.688  93.283  1.00  0.00    -0.268 OA
ENDBRANCH  19  22
ENDBRANCH  15  16
ENDBRANCH  11  14
ENDBRANCH   7   8
ENDBRANCH   2   7
TORSDOF 9
ENDMDL
MODEL 9
REMARK VINA RESULT:      -6.3      1.608      2.375
REMARK  9 active torsions:
REMARK  status: ('A' for Active; 'I' for Inactive)
REMARK    1  A    between atoms: N_3  and  C_6 
REMARK    2  A    between atoms: C_6  and  C_9 
REMARK    3  A    between atoms: C_14  and  C_17 
REMARK       I    between atoms: N_26  and  C_15 
REMARK    4  A    between atoms: C_15  and  C_16 
REMARK    5  A    between atoms: C_20  and  C_23 
REMARK    6  A    between atoms: OG1_24  and  CB_28 
REMARK    7  A    between atoms: N_26  and  CA_27 
REMARK    8  A    between atoms: CA_27  and  CB_28 
REMARK    9  A    between atoms: CA_27  and  C_30 
ROOT
HETATM    1  O   UNK A   0       4.101   6.952  86.657  1.00  0.00    -0.388 OA
HETATM    2  N   UNK A   0       4.654   8.616  88.900  1.00  0.00     0.096 N 
HETATM    3  C   UNK A   0       5.734   8.037  88.088  1.00  0.00     0.299 C 
HETATM    4  C   UNK A   0       3.473   7.742  88.863  1.00  0.00     0.299 C 
HETATM    5  C   UNK A   0       5.243   7.811  86.661  1.00  0.00     0.198 C 
HETATM    6  C   UNK A   0       3.036   7.522  87.419  1.00  0.00     0.198 C 
ENDROOT
BRANCH   2   7
HETATM    7  C   UNK A   0       5.099   8.831  90.276  1.00  0.00     0.311 C 
BRANCH   7   8
HETATM    8  C   UNK A   0       6.323   8.047  90.606  1.00  0.00    -0.030 A 
HETATM    9  C   UNK A   0       7.558   8.690  90.698  1.00  0.00     0.010 A 
HETATM   10  C   UNK A   0       8.704   7.957  91.005  1.00  0.00     0.021 A 
HETATM   11  C   UNK A   0       8.614   6.583  91.222  1.00  0.00     0.018 A 
HETATM   12  C   UNK A   0       7.382   5.940  91.131  1.00  0.00     0.021 A 
HETATM   13  C   UNK A   0       6.235   6.672  90.823  1.00  0.00     0.010 A 
BRANCH  11  14
HETATM   14  C   UNK A   0       9.790   5.831  91.539  1.00  0.00    -0.061 C 
HETATM   15  C   UNK A   0      10.778   5.200  91.806  1.00  0.00    -0.061 C 
BRANCH  15  16
HETATM   16  C   UNK A   0      11.952   4.449  92.124  1.00  0.00     0.018 A 
HETATM   17  C   UNK A   0      12.963   4.301  91.173  1.00  0.00     0.022 A 
HETATM   18  C   UNK A   0      14.109   3.571  91.484  1.00  0.00     0.018 A 
HETATM   19  C   UNK A   0      14.221   3.006  92.737  1.00  0.00     0.032 A 
HETATM   20  C   UNK A   0      13.236   3.137  93.694  1.00  0.00     0.018 A 
HETATM   21  C   UNK A   0      12.089   3.867  93.384  1.00  0.00     0.022 A 
BRANCH  19  22
HETATM   22  C   UNK A   0      15.442   2.226  93.067  1.00  0.00     0.252 C 
HETATM   23  O   UNK A   0      16.411   2.805  93.551  1.00  0.00    -0.268 OA
ENDBRANCH  19  22
ENDBRANCH  15  16
ENDBRANCH  11  14
ENDBRANCH   7   8
ENDBRANCH   2   7
TORSDOF 9
ENDMDL
