MODEL 1
REMARK VINA RESULT:      -7.1      0.000      0.000
REMARK  10 active torsions:
REMARK  status: ('A' for Active; 'I' for Inactive)
REMARK    1  A    between atoms: O_2  and  C_16 
REMARK    2  A    between atoms: N_5  and  C_9 
REMARK    3  A    between atoms: N_6  and  C_13 
REMARK       I    between atoms: N_6  and  C_22 
REMARK    4  A    between atoms: C_9  and  C_12 
REMARK    5  A    between atoms: C_13  and  C_16 
REMARK    6  A    between atoms: C_13  and  C_21 
REMARK    7  A    between atoms: C_19  and  C_24 
REMARK    8  A    between atoms: C_22  and  C_23 
REMARK    9  A    between atoms: C_27  and  C_30 
REMARK   10  A    between atoms: N_33  and  S_34 
ROOT
HETATM    1  C   UNL     1       5.818  10.932  89.530  1.00  0.00     0.056 A 
HETATM    2  C   UNL     1       5.283   9.680  89.753  1.00  0.00     0.005 A 
HETATM    3  C   UNL     1       7.175  11.172  89.583  1.00  0.00     0.005 A 
HETATM    4  C   UNL     1       7.520   8.838  90.102  1.00  0.00     0.042 A 
HETATM    5  C   UNL     1       6.143   8.621  90.043  1.00  0.00     0.008 A 
HETATM    6  C   UNL     1       8.036  10.114  89.873  1.00  0.00     0.008 A 
ENDROOT
BRANCH   1   7
HETATM    7  C   UNL     1       4.901  12.059  89.220  1.00  0.00     0.254 C 
HETATM    8  O   UNL     1       4.840  12.482  88.068  1.00  0.00    -0.268 OA
HETATM    9  N   UNL     1       4.149  12.541  90.281  1.00  0.00    -0.337 N 
HETATM   10  HN  UNL     1       4.234  12.124  91.201  1.00  0.00     0.164 HD
BRANCH   9  11
HETATM   11  C   UNL     1       3.198  13.614  90.135  1.00  0.00     0.172 C 
BRANCH  11  12
HETATM   12  C   UNL     1       1.959  13.435  91.021  1.00  0.00     0.136 C 
HETATM   13  C   UNL     1       2.063  12.215  91.930  1.00  0.00     0.034 C 
BRANCH  12  14
HETATM   14  O   UNL     1       1.777  14.599  91.826  1.00  0.00    -0.383 OA
HETATM   15  H   UNL     1       2.562  15.164  91.729  1.00  0.00     0.210 HD
ENDBRANCH  12  14
ENDBRANCH  11  12
BRANCH  11  16
HETATM   16  C   UNL     1       3.919  14.921  90.447  1.00  0.00     0.398 A 
HETATM   17  O   UNL     1       5.015  15.211  89.971  1.00  0.00    -0.136 OA
HETATM   18  N   UNL     1       4.979  15.544  91.454  1.00  0.00     0.142 N 
HETATM   19  HN  UNL     1       5.886  15.862  91.258  1.00  0.00     0.338 HD
BRANCH  18  20
HETATM   20  S   UNL     1       4.327  15.247  92.646  1.00  0.00     0.076 SA
HETATM   21  H   UNL     1       4.138  14.097  92.876  1.00  0.00     0.136 HD
ENDBRANCH  18  20
ENDBRANCH  11  16
ENDBRANCH   9  11
ENDBRANCH   1   7
BRANCH   4  22
HETATM   22  C   UNL     1       8.402   7.754  90.402  1.00  0.00    -0.059 C 
HETATM   23  C   UNL     1       9.143   6.841  90.654  1.00  0.00    -0.059 C 
BRANCH  23  24
HETATM   24  C   UNL     1      10.026   5.756  90.954  1.00  0.00     0.042 A 
HETATM   25  C   UNL     1      10.704   5.105  89.924  1.00  0.00     0.008 A 
HETATM   26  C   UNL     1      11.563   4.045  90.216  1.00  0.00    -0.002 A 
HETATM   27  C   UNL     1      11.746   3.640  91.539  1.00  0.00     0.011 A 
HETATM   28  C   UNL     1      11.068   4.294  92.568  1.00  0.00    -0.002 A 
HETATM   29  C   UNL     1      10.208   5.352  92.275  1.00  0.00     0.008 A 
BRANCH  27  30
HETATM   30  C   UNL     1      12.666   2.510  91.850  1.00  0.00     0.277 C 
BRANCH  30  31
HETATM   31  N   UNL     1      13.676   2.871  92.843  1.00  0.00     0.147 N 
HETATM   32  C   UNL     1      14.600   1.752  93.077  1.00  0.00     0.283 C 
HETATM   33  C   UNL     1      15.650   2.156  94.108  1.00  0.00     0.178 C 
HETATM   34  O   UNL     1      16.366   3.310  93.663  1.00  0.00    -0.350 OA
HETATM   35  C   UNL     1      15.479   4.411  93.464  1.00  0.00     0.178 C 
HETATM   36  C   UNL     1      14.425   4.062  92.419  1.00  0.00     0.283 C 
ENDBRANCH  30  31
ENDBRANCH  27  30
ENDBRANCH  23  24
ENDBRANCH   4  22
TORSDOF 10
ENDMDL
