MODEL 1
REMARK VINA RESULT:      -6.7      0.000      0.000
REMARK  14 active torsions:
REMARK  status: ('A' for Active; 'I' for Inactive)
REMARK    1  A    between atoms: O_2  and  C_18 
REMARK    2  A    between atoms: C_5  and  C_8 
REMARK    3  A    between atoms: C_5  and  O_35 
REMARK    4  A    between atoms: C_5  and  C_36 
REMARK    5  A    between atoms: N_6  and  C_11 
REMARK    6  A    between atoms: N_7  and  C_15 
REMARK       I    between atoms: N_7  and  C_24 
REMARK    7  A    between atoms: C_8  and  C_23 
REMARK    8  A    between atoms: C_11  and  C_14 
REMARK    9  A    between atoms: C_15  and  C_18 
REMARK   10  A    between atoms: C_15  and  C_23 
REMARK   11  A    between atoms: C_21  and  C_26 
REMARK   12  A    between atoms: C_24  and  C_25 
REMARK   13  A    between atoms: C_29  and  C_32 
REMARK   14  A    between atoms: C_36  and  O_39 
ROOT
HETATM    1  O   UNL     1      16.332   4.196  94.110  1.00  0.00    -0.350 OA
HETATM    2  N   UNL     1      14.585   2.590  92.538  1.00  0.00     0.147 N 
HETATM    3  C   UNL     1      14.500   4.057  92.523  1.00  0.00     0.283 C 
HETATM    4  C   UNL     1      15.094   2.128  93.836  1.00  0.00     0.283 C 
HETATM    5  C   UNL     1      15.868   4.657  92.839  1.00  0.00     0.178 C 
HETATM    6  C   UNL     1      16.446   2.773  94.122  1.00  0.00     0.178 C 
ENDROOT
BRANCH   2   7
HETATM    7  C   UNL     1      13.282   1.994  92.247  1.00  0.00     0.277 C 
BRANCH   7   8
HETATM    8  C   UNL     1      12.189   3.007  92.212  1.00  0.00     0.011 A 
HETATM    9  C   UNL     1      11.931   3.793  93.336  1.00  0.00    -0.002 A 
HETATM   10  C   UNL     1      10.907   4.739  93.305  1.00  0.00     0.008 A 
HETATM   11  C   UNL     1      10.143   4.901  92.149  1.00  0.00     0.042 A 
HETATM   12  C   UNL     1      10.400   4.117  91.026  1.00  0.00     0.008 A 
HETATM   13  C   UNL     1      11.424   3.169  91.057  1.00  0.00    -0.002 A 
BRANCH  11  14
HETATM   14  C   UNL     1       9.094   5.873  92.116  1.00  0.00    -0.059 C 
HETATM   15  C   UNL     1       8.213   6.690  92.090  1.00  0.00    -0.059 C 
BRANCH  15  16
HETATM   16  C   UNL     1       7.165   7.662  92.058  1.00  0.00     0.042 A 
HETATM   17  C   UNL     1       7.366   8.921  92.623  1.00  0.00     0.008 A 
HETATM   18  C   UNL     1       6.344   9.870  92.590  1.00  0.00     0.005 A 
HETATM   19  C   UNL     1       5.146   9.540  91.992  1.00  0.00     0.056 A 
HETATM   20  C   UNL     1       4.923   8.302  91.426  1.00  0.00     0.005 A 
HETATM   21  C   UNL     1       5.943   7.352  91.459  1.00  0.00     0.008 A 
BRANCH  19  22
HETATM   22  C   UNL     1       4.057  10.551  91.958  1.00  0.00     0.254 C 
HETATM   23  O   UNL     1       2.911  10.207  92.237  1.00  0.00    -0.268 OA
HETATM   24  N   UNL     1       4.439  11.844  91.628  1.00  0.00    -0.335 N 
HETATM   25  HN  UNL     1       5.410  12.059  91.434  1.00  0.00     0.164 HD
BRANCH  24  26
HETATM   26  C   UNL     1       3.503  12.939  91.577  1.00  0.00     0.169 C 
BRANCH  26  27
HETATM   27  C   UNL     1       3.758  13.988  92.667  1.00  0.00     0.138 C 
HETATM   28  C   UNL     1       4.472  13.407  93.882  1.00  0.00     0.034 C 
BRANCH  27  29
HETATM   29  O   UNL     1       4.546  15.051  92.130  1.00  0.00    -0.383 OA
HETATM   30  H   UNL     1       4.991  14.727  91.330  1.00  0.00     0.210 HD
ENDBRANCH  27  29
ENDBRANCH  26  27
BRANCH  26  31
HETATM   31  C   UNL     1       3.583  13.555  90.184  1.00  0.00     0.194 C 
HETATM   32  O   UNL     1       2.840  14.460  89.809  1.00  0.00    -0.289 OA
BRANCH  31  33
HETATM   33  C   UNL     1       4.543  12.955  89.406  1.00  0.00     0.053 C 
BRANCH  33  34
HETATM   34  C   UNL     1       4.120  12.525  88.140  1.00  0.00     0.220 C 
BRANCH  34  35
HETATM   35  O   UNL     1       4.785  13.142  87.287  1.00  0.00    -0.371 OA
HETATM   36  H   UNL     1       5.642  12.835  87.539  1.00  0.00     0.211 HD
ENDBRANCH  34  35
BRANCH  34  37
HETATM   37  C   UNL     1       4.194  11.132  87.968  1.00  0.00     0.185 C 
HETATM   38  O   UNL     1       5.191  11.239  88.833  1.00  0.00    -0.647 OA
BRANCH  37  39
HETATM   39  O   UNL     1       3.640  10.301  87.313  1.00  0.00    -0.774 OA
HETATM   40  H   UNL     1       3.096   9.549  87.964  1.00  0.00     0.167 HD
ENDBRANCH  37  39
ENDBRANCH  34  37
ENDBRANCH  33  34
ENDBRANCH  31  33
ENDBRANCH  26  31
ENDBRANCH  24  26
ENDBRANCH  19  22
ENDBRANCH  15  16
ENDBRANCH  11  14
ENDBRANCH   7   8
ENDBRANCH   2   7
TORSDOF 14
ENDMDL
MODEL 2
REMARK VINA RESULT:      -6.1      1.185      1.794
REMARK  14 active torsions:
REMARK  status: ('A' for Active; 'I' for Inactive)
REMARK    1  A    between atoms: O_2  and  C_18 
REMARK    2  A    between atoms: C_5  and  C_8 
REMARK    3  A    between atoms: C_5  and  O_35 
REMARK    4  A    between atoms: C_5  and  C_36 
REMARK    5  A    between atoms: N_6  and  C_11 
REMARK    6  A    between atoms: N_7  and  C_15 
REMARK       I    between atoms: N_7  and  C_24 
REMARK    7  A    between atoms: C_8  and  C_23 
REMARK    8  A    between atoms: C_11  and  C_14 
REMARK    9  A    between atoms: C_15  and  C_18 
REMARK   10  A    between atoms: C_15  and  C_23 
REMARK   11  A    between atoms: C_21  and  C_26 
REMARK   12  A    between atoms: C_24  and  C_25 
REMARK   13  A    between atoms: C_29  and  C_32 
REMARK   14  A    between atoms: C_36  and  O_39 
ROOT
HETATM    1  O   UNL     1      16.190   4.506  94.009  1.00  0.00    -0.350 OA
HETATM    2  N   UNL     1      14.618   2.662  92.516  1.00  0.00     0.147 N 
HETATM    3  C   UNL     1      14.420   4.113  92.396  1.00  0.00     0.283 C 
HETATM    4  C   UNL     1      15.126   2.332  93.855  1.00  0.00     0.283 C 
HETATM    5  C   UNL     1      15.727   4.840  92.699  1.00  0.00     0.178 C 
HETATM    6  C   UNL     1      16.415   3.101  94.124  1.00  0.00     0.178 C 
ENDROOT
BRANCH   2   7
HETATM    7  C   UNL     1      13.374   1.945  92.240  1.00  0.00     0.277 C 
BRANCH   7   8
HETATM    8  C   UNL     1      12.204   2.861  92.129  1.00  0.00     0.011 A 
HETATM    9  C   UNL     1      11.797   3.609  93.235  1.00  0.00    -0.002 A 
HETATM   10  C   UNL     1      10.700   4.464  93.133  1.00  0.00     0.008 A 
HETATM   11  C   UNL     1      10.012   4.573  91.924  1.00  0.00     0.042 A 
HETATM   12  C   UNL     1      10.418   3.827  90.820  1.00  0.00     0.008 A 
HETATM   13  C   UNL     1      11.514   2.971  90.921  1.00  0.00    -0.002 A 
BRANCH  11  14
HETATM   14  C   UNL     1       8.889   5.453  91.819  1.00  0.00    -0.059 C 
HETATM   15  C   UNL     1       7.945   6.192  91.730  1.00  0.00    -0.059 C 
BRANCH  15  16
HETATM   16  C   UNL     1       6.822   7.071  91.624  1.00  0.00     0.042 A 
HETATM   17  C   UNL     1       5.738   6.722  90.817  1.00  0.00     0.008 A 
HETATM   18  C   UNL     1       4.642   7.578  90.716  1.00  0.00     0.005 A 
HETATM   19  C   UNL     1       4.653   8.762  91.423  1.00  0.00     0.056 A 
HETATM   20  C   UNL     1       5.712   9.130  92.226  1.00  0.00     0.005 A 
HETATM   21  C   UNL     1       6.809   8.275  92.328  1.00  0.00     0.008 A 
BRANCH  19  22
HETATM   22  C   UNL     1       3.485   9.674  91.313  1.00  0.00     0.254 C 
HETATM   23  O   UNL     1       2.440   9.255  90.823  1.00  0.00    -0.268 OA
HETATM   24  N   UNL     1       3.667  10.957  91.810  1.00  0.00    -0.335 N 
HETATM   25  HN  UNL     1       4.552  11.226  92.225  1.00  0.00     0.164 HD
BRANCH  24  26
HETATM   26  C   UNL     1       2.623  11.949  91.798  1.00  0.00     0.169 C 
BRANCH  26  27
HETATM   27  C   UNL     1       2.212  12.397  93.207  1.00  0.00     0.138 C 
HETATM   28  C   UNL     1       3.389  12.934  94.014  1.00  0.00     0.034 C 
BRANCH  27  29
HETATM   29  O   UNL     1       1.213  13.411  93.113  1.00  0.00    -0.383 OA
HETATM   30  H   UNL     1       0.436  13.034  92.667  1.00  0.00     0.210 HD
ENDBRANCH  27  29
ENDBRANCH  26  27
BRANCH  26  31
HETATM   31  C   UNL     1       3.109  13.128  90.961  1.00  0.00     0.194 C 
HETATM   32  O   UNL     1       2.364  14.025  90.570  1.00  0.00    -0.289 OA
BRANCH  31  33
HETATM   33  C   UNL     1       4.450  13.042  90.673  1.00  0.00     0.053 C 
BRANCH  33  34
HETATM   34  C   UNL     1       4.778  12.976  89.311  1.00  0.00     0.220 C 
BRANCH  34  35
HETATM   35  O   UNL     1       3.792  12.517  88.704  1.00  0.00    -0.371 OA
HETATM   36  H   UNL     1       3.962  12.908  87.861  1.00  0.00     0.211 HD
ENDBRANCH  34  35
BRANCH  34  37
HETATM   37  C   UNL     1       5.208  14.204  88.779  1.00  0.00     0.185 C 
HETATM   38  O   UNL     1       6.018  13.432  88.072  1.00  0.00    -0.647 OA
BRANCH  37  39
HETATM   39  O   UNL     1       4.967  15.362  88.948  1.00  0.00    -0.774 OA
HETATM   40  H   UNL     1       4.516  15.835  88.020  1.00  0.00     0.167 HD
ENDBRANCH  37  39
ENDBRANCH  34  37
ENDBRANCH  33  34
ENDBRANCH  31  33
ENDBRANCH  26  31
ENDBRANCH  24  26
ENDBRANCH  19  22
ENDBRANCH  15  16
ENDBRANCH  11  14
ENDBRANCH   7   8
ENDBRANCH   2   7
TORSDOF 14
ENDMDL
MODEL 3
REMARK VINA RESULT:      -4.0      3.159     12.917
REMARK  14 active torsions:
REMARK  status: ('A' for Active; 'I' for Inactive)
REMARK    1  A    between atoms: O_2  and  C_18 
REMARK    2  A    between atoms: C_5  and  C_8 
REMARK    3  A    between atoms: C_5  and  O_35 
REMARK    4  A    between atoms: C_5  and  C_36 
REMARK    5  A    between atoms: N_6  and  C_11 
REMARK    6  A    between atoms: N_7  and  C_15 
REMARK       I    between atoms: N_7  and  C_24 
REMARK    7  A    between atoms: C_8  and  C_23 
REMARK    8  A    between atoms: C_11  and  C_14 
REMARK    9  A    between atoms: C_15  and  C_18 
REMARK   10  A    between atoms: C_15  and  C_23 
REMARK   11  A    between atoms: C_21  and  C_26 
REMARK   12  A    between atoms: C_24  and  C_25 
REMARK   13  A    between atoms: C_29  and  C_32 
REMARK   14  A    between atoms: C_36  and  O_39 
ROOT
HETATM    1  O   UNL     1       1.308  15.143  94.110  1.00  0.00    -0.350 OA
HETATM    2  N   UNL     1       2.611  13.590  92.112  1.00  0.00     0.147 N 
HETATM    3  C   UNL     1       2.711  15.056  92.132  1.00  0.00     0.283 C 
HETATM    4  C   UNL     1       1.337  13.164  92.707  1.00  0.00     0.283 C 
HETATM    5  C   UNL     1       2.559  15.565  93.563  1.00  0.00     0.178 C 
HETATM    6  C   UNL     1       1.216  13.718  94.123  1.00  0.00     0.178 C 
ENDROOT
BRANCH   2   7
HETATM    7  C   UNL     1       2.743  13.081  90.748  1.00  0.00     0.277 C 
BRANCH   7   8
HETATM    8  C   UNL     1       3.792  12.027  90.635  1.00  0.00     0.011 A 
HETATM    9  C   UNL     1       4.905  12.059  91.476  1.00  0.00    -0.002 A 
HETATM   10  C   UNL     1       5.888  11.076  91.369  1.00  0.00     0.008 A 
HETATM   11  C   UNL     1       5.757  10.060  90.423  1.00  0.00     0.042 A 
HETATM   12  C   UNL     1       4.646  10.027  89.582  1.00  0.00     0.008 A 
HETATM   13  C   UNL     1       3.663  11.011  89.688  1.00  0.00    -0.002 A 
BRANCH  11  14
HETATM   14  C   UNL     1       6.764   9.050  90.315  1.00  0.00    -0.059 C 
HETATM   15  C   UNL     1       7.611   8.201  90.225  1.00  0.00    -0.059 C 
BRANCH  15  16
HETATM   16  C   UNL     1       8.618   7.191  90.118  1.00  0.00     0.042 A 
HETATM   17  C   UNL     1       9.143   6.861  88.868  1.00  0.00     0.008 A 
HETATM   18  C   UNL     1      10.127   5.878  88.764  1.00  0.00     0.005 A 
HETATM   19  C   UNL     1      10.564   5.248  89.911  1.00  0.00     0.056 A 
HETATM   20  C   UNL     1      10.060   5.556  91.157  1.00  0.00     0.005 A 
HETATM   21  C   UNL     1       9.076   6.539  91.262  1.00  0.00     0.008 A 
BRANCH  19  22
HETATM   22  C   UNL     1      11.610   4.199  89.799  1.00  0.00     0.254 C 
HETATM   23  O   UNL     1      11.819   3.674  88.708  1.00  0.00    -0.268 OA
HETATM   24  N   UNL     1      12.304   3.906  90.965  1.00  0.00    -0.335 N 
HETATM   25  HN  UNL     1      12.093   4.399  91.825  1.00  0.00     0.164 HD
BRANCH  24  26
HETATM   26  C   UNL     1      13.364   2.931  91.013  1.00  0.00     0.169 C 
BRANCH  26  27
HETATM   27  C   UNL     1      14.758   3.570  91.044  1.00  0.00     0.138 C 
HETATM   28  C   UNL     1      15.599   3.196  89.829  1.00  0.00     0.034 C 
BRANCH  27  29
HETATM   29  O   UNL     1      14.630   4.991  91.100  1.00  0.00    -0.383 OA
HETATM   30  H   UNL     1      15.324   5.381  90.542  1.00  0.00     0.210 HD
ENDBRANCH  27  29
ENDBRANCH  26  27
BRANCH  26  31
HETATM   31  C   UNL     1      13.130   2.049  92.235  1.00  0.00     0.194 C 
HETATM   32  O   UNL     1      12.665   0.913  92.162  1.00  0.00    -0.289 OA
BRANCH  31  33
HETATM   33  C   UNL     1      13.462   2.686  93.406  1.00  0.00     0.053 C 
BRANCH  33  34
HETATM   34  C   UNL     1      14.646   2.254  94.021  1.00  0.00     0.220 C 
BRANCH  34  35
HETATM   35  O   UNL     1      14.992   1.190  93.474  1.00  0.00    -0.371 OA
HETATM   36  H   UNL     1      14.148   0.933  93.136  1.00  0.00     0.211 HD
ENDBRANCH  34  35
BRANCH  34  37
HETATM   37  C   UNL     1      15.668   3.218  94.009  1.00  0.00     0.185 C 
HETATM   38  O   UNL     1      14.654   4.063  94.116  1.00  0.00    -0.647 OA
BRANCH  37  39
HETATM   39  O   UNL     1      16.858   3.229  93.901  1.00  0.00    -0.774 OA
HETATM   40  H   UNL     1      17.303   4.201  94.282  1.00  0.00     0.167 HD
ENDBRANCH  37  39
ENDBRANCH  34  37
ENDBRANCH  33  34
ENDBRANCH  31  33
ENDBRANCH  26  31
ENDBRANCH  24  26
ENDBRANCH  19  22
ENDBRANCH  15  16
ENDBRANCH  11  14
ENDBRANCH   7   8
ENDBRANCH   2   7
TORSDOF 14
ENDMDL
