MODEL 1
REMARK VINA RESULT:      -6.5      0.000      0.000
REMARK  14 active torsions:
REMARK  status: ('A' for Active; 'I' for Inactive)
REMARK    1  A    between atoms: O_2  and  C_18 
REMARK    2  A    between atoms: C_5  and  C_8 
REMARK    3  A    between atoms: C_5  and  O_35 
REMARK    4  A    between atoms: C_5  and  C_36 
REMARK    5  A    between atoms: N_6  and  C_11 
REMARK    6  A    between atoms: N_7  and  C_15 
REMARK       I    between atoms: N_7  and  C_24 
REMARK    7  A    between atoms: C_8  and  C_23 
REMARK    8  A    between atoms: C_11  and  C_14 
REMARK    9  A    between atoms: C_15  and  C_18 
REMARK   10  A    between atoms: C_15  and  C_23 
REMARK   11  A    between atoms: C_21  and  C_26 
REMARK   12  A    between atoms: C_24  and  C_25 
REMARK   13  A    between atoms: C_29  and  C_32 
REMARK   14  A    between atoms: C_36  and  O_39 
ROOT
HETATM    1  O   UNL     1      16.419   2.924  94.003  1.00  0.00    -0.350 OA
HETATM    2  N   UNL     1      13.968   3.035  92.560  1.00  0.00     0.147 N 
HETATM    3  C   UNL     1      14.635   1.756  92.843  1.00  0.00     0.283 C 
HETATM    4  C   UNL     1      14.963   4.113  92.470  1.00  0.00     0.283 C 
HETATM    5  C   UNL     1      15.457   1.875  94.124  1.00  0.00     0.178 C 
HETATM    6  C   UNL     1      15.776   4.175  93.758  1.00  0.00     0.178 C 
ENDROOT
BRANCH   2   7
HETATM    7  C   UNL     1      13.183   2.948  91.329  1.00  0.00     0.277 C 
BRANCH   7   8
HETATM    8  C   UNL     1      12.009   3.867  91.338  1.00  0.00     0.011 A 
HETATM    9  C   UNL     1      11.506   4.365  90.136  1.00  0.00    -0.002 A 
HETATM   10  C   UNL     1      10.409   5.227  90.143  1.00  0.00     0.008 A 
HETATM   11  C   UNL     1       9.816   5.589  91.352  1.00  0.00     0.042 A 
HETATM   12  C   UNL     1      10.318   5.092  92.553  1.00  0.00     0.008 A 
HETATM   13  C   UNL     1      11.415   4.231  92.547  1.00  0.00    -0.002 A 
BRANCH  11  14
HETATM   14  C   UNL     1       8.690   6.471  91.359  1.00  0.00    -0.059 C 
HETATM   15  C   UNL     1       7.743   7.212  91.365  1.00  0.00    -0.059 C 
BRANCH  15  16
HETATM   16  C   UNL     1       6.617   8.094  91.373  1.00  0.00     0.042 A 
HETATM   17  C   UNL     1       6.549   9.127  92.308  1.00  0.00     0.008 A 
HETATM   18  C   UNL     1       5.452   9.989  92.314  1.00  0.00     0.005 A 
HETATM   19  C   UNL     1       4.450   9.799  91.386  1.00  0.00     0.056 A 
HETATM   20  C   UNL     1       4.494   8.785  90.452  1.00  0.00     0.005 A 
HETATM   21  C   UNL     1       5.590   7.922  90.445  1.00  0.00     0.008 A 
BRANCH  19  22
HETATM   22  C   UNL     1       3.281  10.716  91.394  1.00  0.00     0.254 C 
HETATM   23  O   UNL     1       2.185  10.294  91.032  1.00  0.00    -0.268 OA
HETATM   24  N   UNL     1       3.523  12.006  91.845  1.00  0.00    -0.335 N 
HETATM   25  HN  UNL     1       4.450  12.276  92.152  1.00  0.00     0.164 HD
BRANCH  24  26
HETATM   26  C   UNL     1       2.487  13.003  91.935  1.00  0.00     0.169 C 
BRANCH  26  27
HETATM   27  C   UNL     1       2.467  13.719  93.291  1.00  0.00     0.138 C 
HETATM   28  C   UNL     1       3.857  13.844  93.905  1.00  0.00     0.034 C 
BRANCH  27  29
HETATM   29  O   UNL     1       1.910  15.023  93.135  1.00  0.00    -0.383 OA
HETATM   30  H   UNL     1       2.317  15.610  93.795  1.00  0.00     0.210 HD
ENDBRANCH  27  29
ENDBRANCH  26  27
BRANCH  26  31
HETATM   31  C   UNL     1       2.691  13.990  90.790  1.00  0.00     0.194 C 
HETATM   32  O   UNL     1       1.775  14.653  90.307  1.00  0.00    -0.289 OA
BRANCH  31  33
HETATM   33  C   UNL     1       3.992  14.015  90.351  1.00  0.00     0.053 C 
BRANCH  33  34
HETATM   34  C   UNL     1       4.167  14.041  88.960  1.00  0.00     0.220 C 
BRANCH  34  35
HETATM   35  O   UNL     1       4.984  14.943  88.696  1.00  0.00    -0.371 OA
HETATM   36  H   UNL     1       5.744  14.557  89.102  1.00  0.00     0.211 HD
ENDBRANCH  34  35
BRANCH  34  37
HETATM   37  C   UNL     1       4.548  12.801  88.420  1.00  0.00     0.185 C 
HETATM   38  O   UNL     1       5.373  12.784  89.456  1.00  0.00    -0.647 OA
BRANCH  37  39
HETATM   39  O   UNL     1       4.273  12.142  87.462  1.00  0.00    -0.774 OA
HETATM   40  H   UNL     1       3.622  12.718  86.732  1.00  0.00     0.167 HD
ENDBRANCH  37  39
ENDBRANCH  34  37
ENDBRANCH  33  34
ENDBRANCH  31  33
ENDBRANCH  26  31
ENDBRANCH  24  26
ENDBRANCH  19  22
ENDBRANCH  15  16
ENDBRANCH  11  14
ENDBRANCH   7   8
ENDBRANCH   2   7
TORSDOF 14
ENDMDL
MODEL 2
REMARK VINA RESULT:      -5.4      1.362      1.937
REMARK  14 active torsions:
REMARK  status: ('A' for Active; 'I' for Inactive)
REMARK    1  A    between atoms: O_2  and  C_18 
REMARK    2  A    between atoms: C_5  and  C_8 
REMARK    3  A    between atoms: C_5  and  O_35 
REMARK    4  A    between atoms: C_5  and  C_36 
REMARK    5  A    between atoms: N_6  and  C_11 
REMARK    6  A    between atoms: N_7  and  C_15 
REMARK       I    between atoms: N_7  and  C_24 
REMARK    7  A    between atoms: C_8  and  C_23 
REMARK    8  A    between atoms: C_11  and  C_14 
REMARK    9  A    between atoms: C_15  and  C_18 
REMARK   10  A    between atoms: C_15  and  C_23 
REMARK   11  A    between atoms: C_21  and  C_26 
REMARK   12  A    between atoms: C_24  and  C_25 
REMARK   13  A    between atoms: C_29  and  C_32 
REMARK   14  A    between atoms: C_36  and  O_39 
ROOT
HETATM    1  O   UNL     1      17.068   3.788  94.020  1.00  0.00    -0.350 OA
HETATM    2  N   UNL     1      14.621   3.132  92.722  1.00  0.00     0.147 N 
HETATM    3  C   UNL     1      14.690   4.186  93.744  1.00  0.00     0.283 C 
HETATM    4  C   UNL     1      15.654   2.117  92.975  1.00  0.00     0.283 C 
HETATM    5  C   UNL     1      16.089   4.797  93.763  1.00  0.00     0.178 C 
HETATM    6  C   UNL     1      17.029   2.776  93.014  1.00  0.00     0.178 C 
ENDROOT
BRANCH   2   7
HETATM    7  C   UNL     1      13.292   2.525  92.693  1.00  0.00     0.277 C 
BRANCH   7   8
HETATM    8  C   UNL     1      12.203   3.543  92.694  1.00  0.00     0.011 A 
HETATM    9  C   UNL     1      11.841   4.175  93.885  1.00  0.00    -0.002 A 
HETATM   10  C   UNL     1      10.820   5.126  93.888  1.00  0.00     0.008 A 
HETATM   11  C   UNL     1      10.164   5.446  92.700  1.00  0.00     0.042 A 
HETATM   12  C   UNL     1      10.525   4.816  91.510  1.00  0.00     0.008 A 
HETATM   13  C   UNL     1      11.545   3.864  91.507  1.00  0.00    -0.002 A 
BRANCH  11  14
HETATM   14  C   UNL     1       9.119   6.423  92.702  1.00  0.00    -0.059 C 
HETATM   15  C   UNL     1       8.241   7.245  92.705  1.00  0.00    -0.059 C 
BRANCH  15  16
HETATM   16  C   UNL     1       7.197   8.222  92.707  1.00  0.00     0.042 A 
HETATM   17  C   UNL     1       7.510   9.574  92.850  1.00  0.00     0.008 A 
HETATM   18  C   UNL     1       6.491  10.527  92.849  1.00  0.00     0.005 A 
HETATM   19  C   UNL     1       5.185  10.108  92.705  1.00  0.00     0.056 A 
HETATM   20  C   UNL     1       4.851   8.777  92.563  1.00  0.00     0.005 A 
HETATM   21  C   UNL     1       5.868   7.823  92.563  1.00  0.00     0.008 A 
BRANCH  19  22
HETATM   22  C   UNL     1       4.101  11.123  92.707  1.00  0.00     0.254 C 
HETATM   23  O   UNL     1       3.262  11.104  93.604  1.00  0.00    -0.268 OA
HETATM   24  N   UNL     1       4.138  12.054  91.677  1.00  0.00    -0.335 N 
HETATM   25  HN  UNL     1       4.877  12.023  90.985  1.00  0.00     0.164 HD
BRANCH  24  26
HETATM   26  C   UNL     1       3.171  13.115  91.556  1.00  0.00     0.169 C 
BRANCH  26  27
HETATM   27  C   UNL     1       3.432  14.271  92.530  1.00  0.00     0.138 C 
HETATM   28  C   UNL     1       4.557  15.187  92.059  1.00  0.00     0.034 C 
BRANCH  27  29
HETATM   29  O   UNL     1       2.241  15.042  92.686  1.00  0.00    -0.383 OA
HETATM   30  H   UNL     1       2.464  15.851  93.177  1.00  0.00     0.210 HD
ENDBRANCH  27  29
ENDBRANCH  26  27
BRANCH  26  31
HETATM   31  C   UNL     1       3.185  13.595  90.108  1.00  0.00     0.194 C 
HETATM   32  O   UNL     1       2.349  14.373  89.652  1.00  0.00    -0.289 OA
BRANCH  31  33
HETATM   33  C   UNL     1       4.206  13.029  89.384  1.00  0.00     0.053 C 
BRANCH  33  34
HETATM   34  C   UNL     1       3.844  12.476  88.148  1.00  0.00     0.220 C 
BRANCH  34  35
HETATM   35  O   UNL     1       4.560  12.999  87.273  1.00  0.00    -0.371 OA
HETATM   36  H   UNL     1       4.876  12.205  86.868  1.00  0.00     0.211 HD
ENDBRANCH  34  35
BRANCH  34  37
HETATM   37  C   UNL     1       3.908  11.072  88.121  1.00  0.00     0.185 C 
HETATM   38  O   UNL     1       2.638  11.167  88.485  1.00  0.00    -0.647 OA
BRANCH  37  39
HETATM   39  O   UNL     1       4.738  10.239  87.914  1.00  0.00    -0.774 OA
HETATM   40  H   UNL     1       5.738  10.703  87.644  1.00  0.00     0.167 HD
ENDBRANCH  37  39
ENDBRANCH  34  37
ENDBRANCH  33  34
ENDBRANCH  31  33
ENDBRANCH  26  31
ENDBRANCH  24  26
ENDBRANCH  19  22
ENDBRANCH  15  16
ENDBRANCH  11  14
ENDBRANCH   7   8
ENDBRANCH   2   7
TORSDOF 14
ENDMDL
MODEL 3
REMARK VINA RESULT:      -5.1      2.621     12.937
REMARK  14 active torsions:
REMARK  status: ('A' for Active; 'I' for Inactive)
REMARK    1  A    between atoms: O_2  and  C_18 
REMARK    2  A    between atoms: C_5  and  C_8 
REMARK    3  A    between atoms: C_5  and  O_35 
REMARK    4  A    between atoms: C_5  and  C_36 
REMARK    5  A    between atoms: N_6  and  C_11 
REMARK    6  A    between atoms: N_7  and  C_15 
REMARK       I    between atoms: N_7  and  C_24 
REMARK    7  A    between atoms: C_8  and  C_23 
REMARK    8  A    between atoms: C_11  and  C_14 
REMARK    9  A    between atoms: C_15  and  C_18 
REMARK   10  A    between atoms: C_15  and  C_23 
REMARK   11  A    between atoms: C_21  and  C_26 
REMARK   12  A    between atoms: C_24  and  C_25 
REMARK   13  A    between atoms: C_29  and  C_32 
REMARK   14  A    between atoms: C_36  and  O_39 
ROOT
HETATM    1  O   UNL     1       3.072  14.832  94.102  1.00  0.00    -0.350 OA
HETATM    2  N   UNL     1       2.681  14.729  91.284  1.00  0.00     0.147 N 
HETATM    3  C   UNL     1       1.736  14.095  92.214  1.00  0.00     0.283 C 
HETATM    4  C   UNL     1       4.027  14.754  91.874  1.00  0.00     0.283 C 
HETATM    5  C   UNL     1       1.753  14.832  93.551  1.00  0.00     0.178 C 
HETATM    6  C   UNL     1       3.991  15.474  93.218  1.00  0.00     0.178 C 
ENDROOT
BRANCH   2   7
HETATM    7  C   UNL     1       2.689  14.032  89.999  1.00  0.00     0.277 C 
BRANCH   7   8
HETATM    8  C   UNL     1       3.680  12.919  89.963  1.00  0.00     0.011 A 
HETATM    9  C   UNL     1       3.384  11.703  90.579  1.00  0.00    -0.002 A 
HETATM   10  C   UNL     1       4.312  10.662  90.547  1.00  0.00     0.008 A 
HETATM   11  C   UNL     1       5.533  10.837  89.897  1.00  0.00     0.042 A 
HETATM   12  C   UNL     1       5.829  12.051  89.281  1.00  0.00     0.008 A 
HETATM   13  C   UNL     1       4.902  13.093  89.313  1.00  0.00    -0.002 A 
BRANCH  11  14
HETATM   14  C   UNL     1       6.483   9.768  89.863  1.00  0.00    -0.059 C 
HETATM   15  C   UNL     1       7.281   8.869  89.834  1.00  0.00    -0.059 C 
BRANCH  15  16
HETATM   16  C   UNL     1       8.231   7.801  89.799  1.00  0.00     0.042 A 
HETATM   17  C   UNL     1       9.452   7.976  89.147  1.00  0.00     0.008 A 
HETATM   18  C   UNL     1      10.379   6.934  89.115  1.00  0.00     0.005 A 
HETATM   19  C   UNL     1      10.065   5.743  89.735  1.00  0.00     0.056 A 
HETATM   20  C   UNL     1       8.865   5.545  90.385  1.00  0.00     0.005 A 
HETATM   21  C   UNL     1       7.937   6.585  90.417  1.00  0.00     0.008 A 
BRANCH  19  22
HETATM   22  C   UNL     1      11.053   4.633  89.699  1.00  0.00     0.254 C 
HETATM   23  O   UNL     1      11.155   3.954  88.680  1.00  0.00    -0.268 OA
HETATM   24  N   UNL     1      11.818   4.463  90.844  1.00  0.00    -0.335 N 
HETATM   25  HN  UNL     1      11.695   5.078  91.639  1.00  0.00     0.164 HD
BRANCH  24  26
HETATM   26  C   UNL     1      12.834   3.446  90.954  1.00  0.00     0.169 C 
BRANCH  26  27
HETATM   27  C   UNL     1      14.255   4.012  90.834  1.00  0.00     0.138 C 
HETATM   28  C   UNL     1      15.130   3.196  89.889  1.00  0.00     0.034 C 
BRANCH  27  29
HETATM   29  O   UNL     1      14.195   5.358  90.365  1.00  0.00    -0.383 OA
HETATM   30  H   UNL     1      15.012   5.546  89.874  1.00  0.00     0.210 HD
ENDBRANCH  27  29
ENDBRANCH  26  27
BRANCH  26  31
HETATM   31  C   UNL     1      12.633   2.729  92.285  1.00  0.00     0.194 C 
HETATM   32  O   UNL     1      12.024   1.666  92.388  1.00  0.00    -0.289 OA
BRANCH  31  33
HETATM   33  C   UNL     1      13.174   3.427  93.338  1.00  0.00     0.053 C 
BRANCH  33  34
HETATM   34  C   UNL     1      14.283   2.834  93.958  1.00  0.00     0.220 C 
BRANCH  34  35
HETATM   35  O   UNL     1      14.433   1.700  93.464  1.00  0.00    -0.371 OA
HETATM   36  H   UNL     1      13.526   1.521  93.265  1.00  0.00     0.211 HD
ENDBRANCH  34  35
BRANCH  34  37
HETATM   37  C   UNL     1      15.451   3.611  93.877  1.00  0.00     0.185 C 
HETATM   38  O   UNL     1      15.993   2.467  93.488  1.00  0.00    -0.647 OA
BRANCH  37  39
HETATM   39  O   UNL     1      15.768   4.739  94.106  1.00  0.00    -0.774 OA
HETATM   40  H   UNL     1      14.963   5.291  94.684  1.00  0.00     0.167 HD
ENDBRANCH  37  39
ENDBRANCH  34  37
ENDBRANCH  33  34
ENDBRANCH  31  33
ENDBRANCH  26  31
ENDBRANCH  24  26
ENDBRANCH  19  22
ENDBRANCH  15  16
ENDBRANCH  11  14
ENDBRANCH   7   8
ENDBRANCH   2   7
TORSDOF 14
ENDMDL
MODEL 4
REMARK VINA RESULT:      -3.7      2.764     12.481
REMARK  14 active torsions:
REMARK  status: ('A' for Active; 'I' for Inactive)
REMARK    1  A    between atoms: O_2  and  C_18 
REMARK    2  A    between atoms: C_5  and  C_8 
REMARK    3  A    between atoms: C_5  and  O_35 
REMARK    4  A    between atoms: C_5  and  C_36 
REMARK    5  A    between atoms: N_6  and  C_11 
REMARK    6  A    between atoms: N_7  and  C_15 
REMARK       I    between atoms: N_7  and  C_24 
REMARK    7  A    between atoms: C_8  and  C_23 
REMARK    8  A    between atoms: C_11  and  C_14 
REMARK    9  A    between atoms: C_15  and  C_18 
REMARK   10  A    between atoms: C_15  and  C_23 
REMARK   11  A    between atoms: C_21  and  C_26 
REMARK   12  A    between atoms: C_24  and  C_25 
REMARK   13  A    between atoms: C_29  and  C_32 
REMARK   14  A    between atoms: C_36  and  O_39 
ROOT
HETATM    1  O   UNL     1       3.231  14.700  94.110  1.00  0.00    -0.350 OA
HETATM    2  N   UNL     1       2.933  14.691  91.279  1.00  0.00     0.147 N 
HETATM    3  C   UNL     1       1.895  14.142  92.163  1.00  0.00     0.283 C 
HETATM    4  C   UNL     1       4.252  14.564  91.914  1.00  0.00     0.283 C 
HETATM    5  C   UNL     1       1.941  14.848  93.515  1.00  0.00     0.178 C 
HETATM    6  C   UNL     1       4.243  15.259  93.271  1.00  0.00     0.178 C 
ENDROOT
BRANCH   2   7
HETATM    7  C   UNL     1       2.914  14.021  89.980  1.00  0.00     0.277 C 
BRANCH   7   8
HETATM    8  C   UNL     1       3.874  12.882  89.915  1.00  0.00     0.011 A 
HETATM    9  C   UNL     1       5.039  12.996  89.155  1.00  0.00    -0.002 A 
HETATM   10  C   UNL     1       5.936  11.930  89.091  1.00  0.00     0.008 A 
HETATM   11  C   UNL     1       5.669  10.752  89.789  1.00  0.00     0.042 A 
HETATM   12  C   UNL     1       4.506  10.638  90.547  1.00  0.00     0.008 A 
HETATM   13  C   UNL     1       3.608  11.703  90.611  1.00  0.00    -0.002 A 
BRANCH  11  14
HETATM   14  C   UNL     1       6.591   9.659  89.725  1.00  0.00    -0.059 C 
HETATM   15  C   UNL     1       7.366   8.742  89.672  1.00  0.00    -0.059 C 
BRANCH  15  16
HETATM   16  C   UNL     1       8.287   7.650  89.609  1.00  0.00     0.042 A 
HETATM   17  C   UNL     1       8.924   7.345  88.406  1.00  0.00     0.008 A 
HETATM   18  C   UNL     1       9.825   6.281  88.346  1.00  0.00     0.005 A 
HETATM   19  C   UNL     1      10.068   5.548  89.488  1.00  0.00     0.056 A 
HETATM   20  C   UNL     1       9.450   5.829  90.689  1.00  0.00     0.005 A 
HETATM   21  C   UNL     1       8.549   6.892  90.750  1.00  0.00     0.008 A 
BRANCH  19  22
HETATM   22  C   UNL     1      11.026   4.414  89.423  1.00  0.00     0.254 C 
HETATM   23  O   UNL     1      11.220   3.854  88.347  1.00  0.00    -0.268 OA
HETATM   24  N   UNL     1      11.660   4.085  90.612  1.00  0.00    -0.335 N 
HETATM   25  HN  UNL     1      11.468   4.609  91.458  1.00  0.00     0.164 HD
BRANCH  24  26
HETATM   26  C   UNL     1      12.633   3.026  90.705  1.00  0.00     0.169 C 
BRANCH  26  27
HETATM   27  C   UNL     1      14.069   3.548  90.837  1.00  0.00     0.138 C 
HETATM   28  C   UNL     1      14.150   5.067  90.725  1.00  0.00     0.034 C 
BRANCH  27  29
HETATM   29  O   UNL     1      14.610   3.147  92.095  1.00  0.00    -0.383 OA
HETATM   30  H   UNL     1      15.542   2.903  91.962  1.00  0.00     0.210 HD
ENDBRANCH  27  29
ENDBRANCH  26  27
BRANCH  26  31
HETATM   31  C   UNL     1      12.252   2.147  91.892  1.00  0.00     0.194 C 
HETATM   32  O   UNL     1      12.770   1.052  92.108  1.00  0.00    -0.289 OA
BRANCH  31  33
HETATM   33  C   UNL     1      11.251   2.703  92.651  1.00  0.00     0.053 C 
BRANCH  33  34
HETATM   34  C   UNL     1      11.642   3.217  93.895  1.00  0.00     0.220 C 
BRANCH  34  35
HETATM   35  O   UNL     1      12.800   2.818  94.124  1.00  0.00    -0.371 OA
HETATM   36  H   UNL     1      13.200   3.659  94.286  1.00  0.00     0.211 HD
ENDBRANCH  34  35
BRANCH  34  37
HETATM   37  C   UNL     1      11.532   4.615  93.984  1.00  0.00     0.185 C 
HETATM   38  O   UNL     1      12.854   4.559  94.000  1.00  0.00    -0.647 OA
BRANCH  37  39
HETATM   39  O   UNL     1      10.652   5.419  94.058  1.00  0.00    -0.774 OA
HETATM   40  H   UNL     1       9.729   5.083  93.489  1.00  0.00     0.167 HD
ENDBRANCH  37  39
ENDBRANCH  34  37
ENDBRANCH  33  34
ENDBRANCH  31  33
ENDBRANCH  26  31
ENDBRANCH  24  26
ENDBRANCH  19  22
ENDBRANCH  15  16
ENDBRANCH  11  14
ENDBRANCH   7   8
ENDBRANCH   2   7
TORSDOF 14
ENDMDL
