MODEL 1
REMARK VINA RESULT:      -7.5      0.000      0.000
REMARK  9 active torsions:
REMARK  status: ('A' for Active; 'I' for Inactive)
REMARK    1  A    between atoms: N_3  and  C_6 
REMARK    2  A    between atoms: C_6  and  C_9 
REMARK    3  A    between atoms: C_14  and  C_17 
REMARK       I    between atoms: N_26  and  C_15 
REMARK    4  A    between atoms: C_15  and  C_16 
REMARK    5  A    between atoms: C_20  and  C_23 
REMARK    6  A    between atoms: OG1_24  and  CB_28 
REMARK    7  A    between atoms: N_26  and  CA_27 
REMARK    8  A    between atoms: CA_27  and  CB_28 
REMARK    9  A    between atoms: CA_27  and  C_30 
ROOT
HETATM    1  O   UNK A   0       2.014   8.027  87.786  1.00  0.00    -0.388 OA
HETATM    2  N   UNK A   0       4.813   7.526  87.660  1.00  0.00     0.096 N 
HETATM    3  C   UNK A   0       4.281   8.893  87.745  1.00  0.00     0.299 C 
HETATM    4  C   UNK A   0       3.844   6.649  86.988  1.00  0.00     0.299 C 
HETATM    5  C   UNK A   0       2.936   8.880  88.467  1.00  0.00     0.198 C 
HETATM    6  C   UNK A   0       2.510   6.689  87.726  1.00  0.00     0.198 C 
ENDROOT
BRANCH   2   7
HETATM    7  C   UNK A   0       6.097   7.513  86.962  1.00  0.00     0.311 C 
BRANCH   7   8
HETATM    8  C   UNK A   0       7.185   6.909  87.784  1.00  0.00    -0.030 A 
HETATM    9  C   UNK A   0       6.963   6.627  89.132  1.00  0.00     0.010 A 
HETATM   10  C   UNK A   0       7.981   6.064  89.903  1.00  0.00     0.021 A 
HETATM   11  C   UNK A   0       9.217   5.782  89.324  1.00  0.00     0.018 A 
HETATM   12  C   UNK A   0       9.439   6.063  87.977  1.00  0.00     0.021 A 
HETATM   13  C   UNK A   0       8.423   6.626  87.207  1.00  0.00     0.010 A 
BRANCH  11  14
HETATM   14  C   UNK A   0      10.260   5.202  90.114  1.00  0.00    -0.061 C 
HETATM   15  C   UNK A   0      11.136   4.714  90.777  1.00  0.00    -0.061 C 
BRANCH  15  16
HETATM   16  C   UNK A   0      12.178   4.135  91.566  1.00  0.00     0.018 A 
HETATM   17  C   UNK A   0      13.439   3.924  91.007  1.00  0.00     0.022 A 
HETATM   18  C   UNK A   0      14.457   3.361  91.778  1.00  0.00     0.018 A 
HETATM   19  C   UNK A   0      14.191   3.023  93.088  1.00  0.00     0.032 A 
HETATM   20  C   UNK A   0      12.953   3.220  93.663  1.00  0.00     0.018 A 
HETATM   21  C   UNK A   0      11.935   3.783  92.894  1.00  0.00     0.022 A 
BRANCH  19  22
HETATM   22  C   UNK A   0      15.275   2.421  93.908  1.00  0.00     0.252 C 
HETATM   23  O   UNK A   0      16.425   2.833  93.776  1.00  0.00    -0.268 OA
ENDBRANCH  19  22
ENDBRANCH  15  16
ENDBRANCH  11  14
ENDBRANCH   7   8
ENDBRANCH   2   7
TORSDOF 9
ENDMDL
MODEL 2
REMARK VINA RESULT:      -7.5      0.220      1.031
REMARK  9 active torsions:
REMARK  status: ('A' for Active; 'I' for Inactive)
REMARK    1  A    between atoms: N_3  and  C_6 
REMARK    2  A    between atoms: C_6  and  C_9 
REMARK    3  A    between atoms: C_14  and  C_17 
REMARK       I    between atoms: N_26  and  C_15 
REMARK    4  A    between atoms: C_15  and  C_16 
REMARK    5  A    between atoms: C_20  and  C_23 
REMARK    6  A    between atoms: OG1_24  and  CB_28 
REMARK    7  A    between atoms: N_26  and  CA_27 
REMARK    8  A    between atoms: CA_27  and  CB_28 
REMARK    9  A    between atoms: CA_27  and  C_30 
ROOT
HETATM    1  O   UNK A   0       1.770   7.957  87.905  1.00  0.00    -0.388 OA
HETATM    2  N   UNK A   0       4.585   7.563  87.767  1.00  0.00     0.096 N 
HETATM    3  C   UNK A   0       4.003   8.906  87.900  1.00  0.00     0.299 C 
HETATM    4  C   UNK A   0       3.650   6.677  87.062  1.00  0.00     0.299 C 
HETATM    5  C   UNK A   0       2.659   8.818  88.618  1.00  0.00     0.198 C 
HETATM    6  C   UNK A   0       2.315   6.641  87.799  1.00  0.00     0.198 C 
ENDROOT
BRANCH   2   7
HETATM    7  C   UNK A   0       5.870   7.623  87.071  1.00  0.00     0.311 C 
BRANCH   7   8
HETATM    8  C   UNK A   0       6.974   7.011  87.864  1.00  0.00    -0.030 A 
HETATM    9  C   UNK A   0       6.791   6.742  89.221  1.00  0.00     0.010 A 
HETATM   10  C   UNK A   0       7.824   6.172  89.964  1.00  0.00     0.021 A 
HETATM   11  C   UNK A   0       9.039   5.868  89.350  1.00  0.00     0.018 A 
HETATM   12  C   UNK A   0       9.222   6.136  87.995  1.00  0.00     0.021 A 
HETATM   13  C   UNK A   0       8.190   6.707  87.251  1.00  0.00     0.010 A 
BRANCH  11  14
HETATM   14  C   UNK A   0      10.098   5.281  90.112  1.00  0.00    -0.061 C 
HETATM   15  C   UNK A   0      10.988   4.788  90.752  1.00  0.00    -0.061 C 
BRANCH  15  16
HETATM   16  C   UNK A   0      12.046   4.202  91.514  1.00  0.00     0.018 A 
HETATM   17  C   UNK A   0      11.815   3.794  92.828  1.00  0.00     0.022 A 
HETATM   18  C   UNK A   0      12.848   3.220  93.570  1.00  0.00     0.018 A 
HETATM   19  C   UNK A   0      14.086   3.066  92.982  1.00  0.00     0.032 A 
HETATM   20  C   UNK A   0      14.339   3.462  91.686  1.00  0.00     0.018 A 
HETATM   21  C   UNK A   0      13.308   4.036  90.943  1.00  0.00     0.022 A 
BRANCH  19  22
HETATM   22  C   UNK A   0      15.185   2.456  93.774  1.00  0.00     0.252 C 
HETATM   23  O   UNK A   0      16.343   2.809  93.563  1.00  0.00    -0.268 OA
ENDBRANCH  19  22
ENDBRANCH  15  16
ENDBRANCH  11  14
ENDBRANCH   7   8
ENDBRANCH   2   7
TORSDOF 9
ENDMDL
MODEL 3
REMARK VINA RESULT:      -6.9      1.630      2.303
REMARK  9 active torsions:
REMARK  status: ('A' for Active; 'I' for Inactive)
REMARK    1  A    between atoms: N_3  and  C_6 
REMARK    2  A    between atoms: C_6  and  C_9 
REMARK    3  A    between atoms: C_14  and  C_17 
REMARK       I    between atoms: N_26  and  C_15 
REMARK    4  A    between atoms: C_15  and  C_16 
REMARK    5  A    between atoms: C_20  and  C_23 
REMARK    6  A    between atoms: OG1_24  and  CB_28 
REMARK    7  A    between atoms: N_26  and  CA_27 
REMARK    8  A    between atoms: CA_27  and  CB_28 
REMARK    9  A    between atoms: CA_27  and  C_30 
ROOT
HETATM    1  O   UNK A   0       2.869  11.377  89.950  1.00  0.00    -0.388 OA
HETATM    2  N   UNK A   0       4.630   9.397  88.910  1.00  0.00     0.096 N 
HETATM    3  C   UNK A   0       3.801  10.228  88.026  1.00  0.00     0.299 C 
HETATM    4  C   UNK A   0       3.967   9.229  90.211  1.00  0.00     0.299 C 
HETATM    5  C   UNK A   0       3.520  11.572  88.693  1.00  0.00     0.198 C 
HETATM    6  C   UNK A   0       3.683  10.596  90.827  1.00  0.00     0.198 C 
ENDROOT
BRANCH   2   7
HETATM    7  C   UNK A   0       4.902   8.099  88.295  1.00  0.00     0.311 C 
BRANCH   7   8
HETATM    8  C   UNK A   0       6.112   7.442  88.866  1.00  0.00    -0.030 A 
HETATM    9  C   UNK A   0       5.995   6.217  89.523  1.00  0.00     0.010 A 
HETATM   10  C   UNK A   0       7.127   5.602  90.060  1.00  0.00     0.021 A 
HETATM   11  C   UNK A   0       8.375   6.213  89.938  1.00  0.00     0.018 A 
HETATM   12  C   UNK A   0       8.493   7.437  89.282  1.00  0.00     0.021 A 
HETATM   13  C   UNK A   0       7.361   8.052  88.746  1.00  0.00     0.010 A 
BRANCH  11  14
HETATM   14  C   UNK A   0       9.535   5.582  90.487  1.00  0.00    -0.061 C 
HETATM   15  C   UNK A   0      10.511   5.052  90.947  1.00  0.00    -0.061 C 
BRANCH  15  16
HETATM   16  C   UNK A   0      11.671   4.422  91.496  1.00  0.00     0.018 A 
HETATM   17  C   UNK A   0      11.656   3.960  92.813  1.00  0.00     0.022 A 
HETATM   18  C   UNK A   0      12.787   3.342  93.347  1.00  0.00     0.018 A 
HETATM   19  C   UNK A   0      13.906   3.201  92.554  1.00  0.00     0.032 A 
HETATM   20  C   UNK A   0      13.947   3.650  91.251  1.00  0.00     0.018 A 
HETATM   21  C   UNK A   0      12.817   4.268  90.716  1.00  0.00     0.022 A 
BRANCH  19  22
HETATM   22  C   UNK A   0      15.112   2.546  93.125  1.00  0.00     0.252 C 
HETATM   23  O   UNK A   0      16.031   3.243  93.547  1.00  0.00    -0.268 OA
ENDBRANCH  19  22
ENDBRANCH  15  16
ENDBRANCH  11  14
ENDBRANCH   7   8
ENDBRANCH   2   7
TORSDOF 9
ENDMDL
MODEL 4
REMARK VINA RESULT:      -6.9      1.525      2.290
REMARK  9 active torsions:
REMARK  status: ('A' for Active; 'I' for Inactive)
REMARK    1  A    between atoms: N_3  and  C_6 
REMARK    2  A    between atoms: C_6  and  C_9 
REMARK    3  A    between atoms: C_14  and  C_17 
REMARK       I    between atoms: N_26  and  C_15 
REMARK    4  A    between atoms: C_15  and  C_16 
REMARK    5  A    between atoms: C_20  and  C_23 
REMARK    6  A    between atoms: OG1_24  and  CB_28 
REMARK    7  A    between atoms: N_26  and  CA_27 
REMARK    8  A    between atoms: CA_27  and  CB_28 
REMARK    9  A    between atoms: CA_27  and  C_30 
ROOT
HETATM    1  O   UNK A   0       2.704  11.093  89.759  1.00  0.00    -0.388 OA
HETATM    2  N   UNK A   0       4.608   9.192  88.832  1.00  0.00     0.096 N 
HETATM    3  C   UNK A   0       3.900  10.085  87.904  1.00  0.00     0.299 C 
HETATM    4  C   UNK A   0       3.775   8.931  90.014  1.00  0.00     0.299 C 
HETATM    5  C   UNK A   0       3.519  11.378  88.621  1.00  0.00     0.198 C 
HETATM    6  C   UNK A   0       3.396  10.250  90.681  1.00  0.00     0.198 C 
ENDROOT
BRANCH   2   7
HETATM    7  C   UNK A   0       4.974   7.942  88.168  1.00  0.00     0.311 C 
BRANCH   7   8
HETATM    8  C   UNK A   0       6.185   7.313  88.770  1.00  0.00    -0.030 A 
HETATM    9  C   UNK A   0       7.432   7.922  88.624  1.00  0.00     0.010 A 
HETATM   10  C   UNK A   0       8.565   7.334  89.184  1.00  0.00     0.021 A 
HETATM   11  C   UNK A   0       8.451   6.138  89.892  1.00  0.00     0.018 A 
HETATM   12  C   UNK A   0       7.206   5.528  90.039  1.00  0.00     0.021 A 
HETATM   13  C   UNK A   0       6.073   6.116  89.478  1.00  0.00     0.010 A 
BRANCH  11  14
HETATM   14  C   UNK A   0       9.614   5.535  90.469  1.00  0.00    -0.061 C 
HETATM   15  C   UNK A   0      10.591   5.028  90.953  1.00  0.00    -0.061 C 
BRANCH  15  16
HETATM   16  C   UNK A   0      11.753   4.427  91.529  1.00  0.00     0.018 A 
HETATM   17  C   UNK A   0      11.722   3.974  92.848  1.00  0.00     0.022 A 
HETATM   18  C   UNK A   0      12.855   3.385  93.408  1.00  0.00     0.018 A 
HETATM   19  C   UNK A   0      13.992   3.260  92.638  1.00  0.00     0.032 A 
HETATM   20  C   UNK A   0      14.048   3.700  91.332  1.00  0.00     0.018 A 
HETATM   21  C   UNK A   0      12.916   4.290  90.770  1.00  0.00     0.022 A 
BRANCH  19  22
HETATM   22  C   UNK A   0      15.199   2.634  93.236  1.00  0.00     0.252 C 
HETATM   23  O   UNK A   0      16.047   3.350  93.765  1.00  0.00    -0.268 OA
ENDBRANCH  19  22
ENDBRANCH  15  16
ENDBRANCH  11  14
ENDBRANCH   7   8
ENDBRANCH   2   7
TORSDOF 9
ENDMDL
MODEL 5
REMARK VINA RESULT:      -6.6      3.939     10.431
REMARK  9 active torsions:
REMARK  status: ('A' for Active; 'I' for Inactive)
REMARK    1  A    between atoms: N_3  and  C_6 
REMARK    2  A    between atoms: C_6  and  C_9 
REMARK    3  A    between atoms: C_14  and  C_17 
REMARK       I    between atoms: N_26  and  C_15 
REMARK    4  A    between atoms: C_15  and  C_16 
REMARK    5  A    between atoms: C_20  and  C_23 
REMARK    6  A    between atoms: OG1_24  and  CB_28 
REMARK    7  A    between atoms: N_26  and  CA_27 
REMARK    8  A    between atoms: CA_27  and  CB_28 
REMARK    9  A    between atoms: CA_27  and  C_30 
ROOT
HETATM    1  O   UNK A   0      14.595   3.371  92.140  1.00  0.00    -0.388 OA
HETATM    2  N   UNK A   0      11.867   4.177  92.244  1.00  0.00     0.096 N 
HETATM    3  C   UNK A   0      12.451   3.308  93.275  1.00  0.00     0.299 C 
HETATM    4  C   UNK A   0      12.561   3.976  90.964  1.00  0.00     0.299 C 
HETATM    5  C   UNK A   0      13.948   3.583  93.396  1.00  0.00     0.198 C 
HETATM    6  C   UNK A   0      14.054   4.234  91.139  1.00  0.00     0.198 C 
ENDROOT
BRANCH   2   7
HETATM    7  C   UNK A   0      10.434   3.923  92.103  1.00  0.00     0.311 C 
BRANCH   7   8
HETATM    8  C   UNK A   0       9.660   5.169  91.836  1.00  0.00    -0.030 A 
HETATM    9  C   UNK A   0       8.736   5.203  90.791  1.00  0.00     0.010 A 
HETATM   10  C   UNK A   0       8.013   6.369  90.538  1.00  0.00     0.021 A 
HETATM   11  C   UNK A   0       8.212   7.498  91.332  1.00  0.00     0.018 A 
HETATM   12  C   UNK A   0       9.134   7.464  92.376  1.00  0.00     0.021 A 
HETATM   13  C   UNK A   0       9.859   6.299  92.628  1.00  0.00     0.010 A 
BRANCH  11  14
HETATM   14  C   UNK A   0       7.469   8.693  91.074  1.00  0.00    -0.061 C 
HETATM   15  C   UNK A   0       6.843   9.696  90.857  1.00  0.00    -0.061 C 
BRANCH  15  16
HETATM   16  C   UNK A   0       6.099  10.890  90.600  1.00  0.00     0.018 A 
HETATM   17  C   UNK A   0       6.232  11.543  89.374  1.00  0.00     0.022 A 
HETATM   18  C   UNK A   0       5.504  12.705  89.122  1.00  0.00     0.018 A 
HETATM   19  C   UNK A   0       4.660  13.189  90.100  1.00  0.00     0.032 A 
HETATM   20  C   UNK A   0       4.512  12.562  91.319  1.00  0.00     0.018 A 
HETATM   21  C   UNK A   0       5.239  11.399  91.573  1.00  0.00     0.022 A 
BRANCH  19  22
HETATM   22  C   UNK A   0       3.887  14.429  89.832  1.00  0.00     0.252 C 
HETATM   23  O   UNK A   0       4.478  15.504  89.778  1.00  0.00    -0.268 OA
ENDBRANCH  19  22
ENDBRANCH  15  16
ENDBRANCH  11  14
ENDBRANCH   7   8
ENDBRANCH   2   7
TORSDOF 9
ENDMDL
MODEL 6
REMARK VINA RESULT:      -6.3      2.064      3.131
REMARK  9 active torsions:
REMARK  status: ('A' for Active; 'I' for Inactive)
REMARK    1  A    between atoms: N_3  and  C_6 
REMARK    2  A    between atoms: C_6  and  C_9 
REMARK    3  A    between atoms: C_14  and  C_17 
REMARK       I    between atoms: N_26  and  C_15 
REMARK    4  A    between atoms: C_15  and  C_16 
REMARK    5  A    between atoms: C_20  and  C_23 
REMARK    6  A    between atoms: OG1_24  and  CB_28 
REMARK    7  A    between atoms: N_26  and  CA_27 
REMARK    8  A    between atoms: CA_27  and  CB_28 
REMARK    9  A    between atoms: CA_27  and  C_30 
ROOT
HETATM    1  O   UNK A   0       2.186  10.049  87.943  1.00  0.00    -0.388 OA
HETATM    2  N   UNK A   0       4.067   9.348  89.961  1.00  0.00     0.096 N 
HETATM    3  C   UNK A   0       2.788   8.638  89.824  1.00  0.00     0.299 C 
HETATM    4  C   UNK A   0       3.928  10.732  89.487  1.00  0.00     0.299 C 
HETATM    5  C   UNK A   0       2.320   8.692  88.372  1.00  0.00     0.198 C 
HETATM    6  C   UNK A   0       3.433  10.738  88.044  1.00  0.00     0.198 C 
ENDROOT
BRANCH   2   7
HETATM    7  C   UNK A   0       4.530   9.318  91.347  1.00  0.00     0.311 C 
BRANCH   7   8
HETATM    8  C   UNK A   0       5.757   8.488  91.519  1.00  0.00    -0.030 A 
HETATM    9  C   UNK A   0       6.408   7.968  90.399  1.00  0.00     0.010 A 
HETATM   10  C   UNK A   0       7.554   7.190  90.558  1.00  0.00     0.021 A 
HETATM   11  C   UNK A   0       8.051   6.935  91.836  1.00  0.00     0.018 A 
HETATM   12  C   UNK A   0       7.402   7.455  92.955  1.00  0.00     0.021 A 
HETATM   13  C   UNK A   0       6.255   8.232  92.796  1.00  0.00     0.010 A 
BRANCH  11  14
HETATM   14  C   UNK A   0       9.228   6.139  91.999  1.00  0.00    -0.061 C 
HETATM   15  C   UNK A   0      10.218   5.469  92.136  1.00  0.00    -0.061 C 
BRANCH  15  16
HETATM   16  C   UNK A   0      11.394   4.673  92.299  1.00  0.00     0.018 A 
HETATM   17  C   UNK A   0      11.738   4.188  93.561  1.00  0.00     0.022 A 
HETATM   18  C   UNK A   0      12.884   3.409  93.718  1.00  0.00     0.018 A 
HETATM   19  C   UNK A   0      13.660   3.132  92.611  1.00  0.00     0.032 A 
HETATM   20  C   UNK A   0      13.341   3.601  91.354  1.00  0.00     0.018 A 
HETATM   21  C   UNK A   0      12.195   4.380  91.195  1.00  0.00     0.022 A 
BRANCH  19  22
HETATM   22  C   UNK A   0      14.882   2.304  92.780  1.00  0.00     0.252 C 
HETATM   23  O   UNK A   0      15.655   2.557  93.701  1.00  0.00    -0.268 OA
ENDBRANCH  19  22
ENDBRANCH  15  16
ENDBRANCH  11  14
ENDBRANCH   7   8
ENDBRANCH   2   7
TORSDOF 9
ENDMDL
MODEL 7
REMARK VINA RESULT:      -6.1      3.601     10.191
REMARK  9 active torsions:
REMARK  status: ('A' for Active; 'I' for Inactive)
REMARK    1  A    between atoms: N_3  and  C_6 
REMARK    2  A    between atoms: C_6  and  C_9 
REMARK    3  A    between atoms: C_14  and  C_17 
REMARK       I    between atoms: N_26  and  C_15 
REMARK    4  A    between atoms: C_15  and  C_16 
REMARK    5  A    between atoms: C_20  and  C_23 
REMARK    6  A    between atoms: OG1_24  and  CB_28 
REMARK    7  A    between atoms: N_26  and  CA_27 
REMARK    8  A    between atoms: CA_27  and  CB_28 
REMARK    9  A    between atoms: CA_27  and  C_30 
ROOT
HETATM    1  O   UNK A   0      15.667   3.954  93.997  1.00  0.00    -0.388 OA
HETATM    2  N   UNK A   0      13.814   2.580  92.330  1.00  0.00     0.096 N 
HETATM    3  C   UNK A   0      14.035   4.027  92.203  1.00  0.00     0.299 C 
HETATM    4  C   UNK A   0      14.069   2.152  93.713  1.00  0.00     0.299 C 
HETATM    5  C   UNK A   0      15.453   4.374  92.648  1.00  0.00     0.198 C 
HETATM    6  C   UNK A   0      15.484   2.543  94.124  1.00  0.00     0.198 C 
ENDROOT
BRANCH   2   7
HETATM    7  C   UNK A   0      12.457   2.225  91.918  1.00  0.00     0.311 C 
BRANCH   7   8
HETATM    8  C   UNK A   0      11.628   3.423  91.600  1.00  0.00    -0.030 A 
HETATM    9  C   UNK A   0      11.478   3.834  90.275  1.00  0.00     0.010 A 
HETATM   10  C   UNK A   0      10.705   4.956  89.977  1.00  0.00     0.021 A 
HETATM   11  C   UNK A   0      10.081   5.665  91.003  1.00  0.00     0.018 A 
HETATM   12  C   UNK A   0      10.231   5.255  92.327  1.00  0.00     0.021 A 
HETATM   13  C   UNK A   0      11.004   4.134  92.626  1.00  0.00     0.010 A 
BRANCH  11  14
HETATM   14  C   UNK A   0       9.286   6.814  90.697  1.00  0.00    -0.061 C 
HETATM   15  C   UNK A   0       8.619   7.781  90.439  1.00  0.00    -0.061 C 
BRANCH  15  16
HETATM   16  C   UNK A   0       7.825   8.929  90.132  1.00  0.00     0.018 A 
HETATM   17  C   UNK A   0       6.468   8.944  90.455  1.00  0.00     0.022 A 
HETATM   18  C   UNK A   0       5.693  10.065  90.158  1.00  0.00     0.018 A 
HETATM   19  C   UNK A   0       6.293  11.146  89.545  1.00  0.00     0.032 A 
HETATM   20  C   UNK A   0       7.632  11.155  89.215  1.00  0.00     0.018 A 
HETATM   21  C   UNK A   0       8.407  10.034  89.511  1.00  0.00     0.022 A 
BRANCH  19  22
HETATM   22  C   UNK A   0       5.467  12.340  89.227  1.00  0.00     0.252 C 
HETATM   23  O   UNK A   0       5.326  12.676  88.054  1.00  0.00    -0.268 OA
ENDBRANCH  19  22
ENDBRANCH  15  16
ENDBRANCH  11  14
ENDBRANCH   7   8
ENDBRANCH   2   7
TORSDOF 9
ENDMDL
MODEL 8
REMARK VINA RESULT:      -6.0      2.508     10.350
REMARK  9 active torsions:
REMARK  status: ('A' for Active; 'I' for Inactive)
REMARK    1  A    between atoms: N_3  and  C_6 
REMARK    2  A    between atoms: C_6  and  C_9 
REMARK    3  A    between atoms: C_14  and  C_17 
REMARK       I    between atoms: N_26  and  C_15 
REMARK    4  A    between atoms: C_15  and  C_16 
REMARK    5  A    between atoms: C_20  and  C_23 
REMARK    6  A    between atoms: OG1_24  and  CB_28 
REMARK    7  A    between atoms: N_26  and  CA_27 
REMARK    8  A    between atoms: CA_27  and  CB_28 
REMARK    9  A    between atoms: CA_27  and  C_30 
ROOT
HETATM    1  O   UNK A   0      14.630   2.784  94.113  1.00  0.00    -0.388 OA
HETATM    2  N   UNK A   0      13.285   3.722  91.787  1.00  0.00     0.096 N 
HETATM    3  C   UNK A   0      12.785   2.571  92.551  1.00  0.00     0.299 C 
HETATM    4  C   UNK A   0      14.745   3.822  91.924  1.00  0.00     0.299 C 
HETATM    5  C   UNK A   0      13.207   2.698  94.013  1.00  0.00     0.198 C 
HETATM    6  C   UNK A   0      15.121   3.919  93.398  1.00  0.00     0.198 C 
ENDROOT
BRANCH   2   7
HETATM    7  C   UNK A   0      12.901   3.616  90.380  1.00  0.00     0.311 C 
BRANCH   7   8
HETATM    8  C   UNK A   0      11.537   4.160  90.121  1.00  0.00    -0.030 A 
HETATM    9  C   UNK A   0      10.813   3.725  89.010  1.00  0.00     0.010 A 
HETATM   10  C   UNK A   0       9.538   4.235  88.766  1.00  0.00     0.021 A 
HETATM   11  C   UNK A   0       8.987   5.177  89.633  1.00  0.00     0.018 A 
HETATM   12  C   UNK A   0       9.709   5.612  90.743  1.00  0.00     0.021 A 
HETATM   13  C   UNK A   0      10.984   5.103  90.988  1.00  0.00     0.010 A 
BRANCH  11  14
HETATM   14  C   UNK A   0       7.678   5.698  89.384  1.00  0.00    -0.061 C 
HETATM   15  C   UNK A   0       6.578   6.137  89.174  1.00  0.00    -0.061 C 
BRANCH  15  16
HETATM   16  C   UNK A   0       5.271   6.658  88.925  1.00  0.00     0.018 A 
HETATM   17  C   UNK A   0       4.510   7.163  89.980  1.00  0.00     0.022 A 
HETATM   18  C   UNK A   0       3.235   7.674  89.736  1.00  0.00     0.018 A 
HETATM   19  C   UNK A   0       2.751   7.671  88.444  1.00  0.00     0.032 A 
HETATM   20  C   UNK A   0       3.484   7.177  87.385  1.00  0.00     0.018 A 
HETATM   21  C   UNK A   0       4.758   6.665  87.628  1.00  0.00     0.022 A 
BRANCH  19  22
HETATM   22  C   UNK A   0       1.392   8.214  88.185  1.00  0.00     0.252 C 
HETATM   23  O   UNK A   0       1.270   9.391  87.855  1.00  0.00    -0.268 OA
ENDBRANCH  19  22
ENDBRANCH  15  16
ENDBRANCH  11  14
ENDBRANCH   7   8
ENDBRANCH   2   7
TORSDOF 9
ENDMDL
MODEL 9
REMARK VINA RESULT:      -6.0      3.544      4.544
REMARK  9 active torsions:
REMARK  status: ('A' for Active; 'I' for Inactive)
REMARK    1  A    between atoms: N_3  and  C_6 
REMARK    2  A    between atoms: C_6  and  C_9 
REMARK    3  A    between atoms: C_14  and  C_17 
REMARK       I    between atoms: N_26  and  C_15 
REMARK    4  A    between atoms: C_15  and  C_16 
REMARK    5  A    between atoms: C_20  and  C_23 
REMARK    6  A    between atoms: OG1_24  and  CB_28 
REMARK    7  A    between atoms: N_26  and  CA_27 
REMARK    8  A    between atoms: CA_27  and  CB_28 
REMARK    9  A    between atoms: CA_27  and  C_30 
ROOT
HETATM    1  O   UNK A   0       2.677  14.177  91.600  1.00  0.00    -0.388 OA
HETATM    2  N   UNK A   0       4.560  12.488  90.295  1.00  0.00     0.096 N 
HETATM    3  C   UNK A   0       4.608  13.949  90.147  1.00  0.00     0.299 C 
HETATM    4  C   UNK A   0       3.179  12.052  90.544  1.00  0.00     0.299 C 
HETATM    5  C   UNK A   0       4.021  14.614  91.390  1.00  0.00     0.198 C 
HETATM    6  C   UNK A   0       2.626  12.761  91.776  1.00  0.00     0.198 C 
ENDROOT
BRANCH   2   7
HETATM    7  C   UNK A   0       5.108  11.830  89.110  1.00  0.00     0.311 C 
BRANCH   7   8
HETATM    8  C   UNK A   0       6.018  10.701  89.457  1.00  0.00    -0.030 A 
HETATM    9  C   UNK A   0       7.388  10.929  89.596  1.00  0.00     0.010 A 
HETATM   10  C   UNK A   0       8.240   9.873  89.919  1.00  0.00     0.021 A 
HETATM   11  C   UNK A   0       7.722   8.591  90.103  1.00  0.00     0.018 A 
HETATM   12  C   UNK A   0       6.355   8.363  89.964  1.00  0.00     0.021 A 
HETATM   13  C   UNK A   0       5.502   9.418  89.641  1.00  0.00     0.010 A 
BRANCH  11  14
HETATM   14  C   UNK A   0       8.597   7.509  90.436  1.00  0.00    -0.061 C 
HETATM   15  C   UNK A   0       9.332   6.599  90.715  1.00  0.00    -0.061 C 
BRANCH  15  16
HETATM   16  C   UNK A   0      10.206   5.518  91.046  1.00  0.00     0.018 A 
HETATM   17  C   UNK A   0      10.599   5.321  92.371  1.00  0.00     0.022 A 
HETATM   18  C   UNK A   0      11.450   4.264  92.694  1.00  0.00     0.018 A 
HETATM   19  C   UNK A   0      11.888   3.429  91.689  1.00  0.00     0.032 A 
HETATM   20  C   UNK A   0      11.515   3.602  90.372  1.00  0.00     0.018 A 
HETATM   21  C   UNK A   0      10.664   4.659  90.047  1.00  0.00     0.022 A 
BRANCH  19  22
HETATM   22  C   UNK A   0      12.796   2.304  92.034  1.00  0.00     0.252 C 
HETATM   23  O   UNK A   0      13.636   2.461  92.916  1.00  0.00    -0.268 OA
ENDBRANCH  19  22
ENDBRANCH  15  16
ENDBRANCH  11  14
ENDBRANCH   7   8
ENDBRANCH   2   7
TORSDOF 9
ENDMDL
