MODEL 1
REMARK VINA RESULT:      -6.8      0.000      0.000
REMARK  10 active torsions:
REMARK  status: ('A' for Active; 'I' for Inactive)
REMARK    1  A    between atoms: O_2  and  C_16 
REMARK    2  A    between atoms: N_5  and  C_9 
REMARK    3  A    between atoms: N_6  and  C_13 
REMARK       I    between atoms: N_6  and  C_22 
REMARK    4  A    between atoms: C_9  and  C_12 
REMARK    5  A    between atoms: C_13  and  C_16 
REMARK    6  A    between atoms: C_13  and  C_21 
REMARK    7  A    between atoms: C_19  and  C_24 
REMARK    8  A    between atoms: C_22  and  C_23 
REMARK    9  A    between atoms: C_27  and  C_30 
REMARK   10  A    between atoms: N_33  and  S_34 
ROOT
HETATM    1  C   UNL     1       5.541  10.808  89.563  1.00  0.00     0.056 A 
HETATM    2  C   UNL     1       6.668  11.080  90.310  1.00  0.00     0.005 A 
HETATM    3  C   UNL     1       5.261   9.545  89.086  1.00  0.00     0.005 A 
HETATM    4  C   UNL     1       7.296   8.756  90.121  1.00  0.00     0.042 A 
HETATM    5  C   UNL     1       7.557  10.043  90.592  1.00  0.00     0.008 A 
HETATM    6  C   UNL     1       6.149   8.506  89.368  1.00  0.00     0.008 A 
ENDROOT
BRANCH   1   7
HETATM    7  C   UNL     1       4.594  11.913  89.264  1.00  0.00     0.254 C 
HETATM    8  O   UNL     1       4.406  12.243  88.095  1.00  0.00    -0.268 OA
HETATM    9  N   UNL     1       3.961  12.485  90.359  1.00  0.00    -0.337 N 
HETATM   10  HN  UNL     1       4.148  12.144  91.295  1.00  0.00     0.164 HD
BRANCH   9  11
HETATM   11  C   UNL     1       2.999  13.549  90.230  1.00  0.00     0.172 C 
BRANCH  11  12
HETATM   12  C   UNL     1       1.831  13.417  91.217  1.00  0.00     0.136 C 
HETATM   13  C   UNL     1       2.116  12.409  92.325  1.00  0.00     0.034 C 
BRANCH  12  14
HETATM   14  O   UNL     1       1.557  14.688  91.805  1.00  0.00    -0.383 OA
HETATM   15  H   UNL     1       2.150  15.344  91.402  1.00  0.00     0.210 HD
ENDBRANCH  12  14
ENDBRANCH  11  12
BRANCH  11  16
HETATM   16  C   UNL     1       3.737  14.870  90.419  1.00  0.00     0.398 A 
HETATM   17  O   UNL     1       4.739  15.175  89.776  1.00  0.00    -0.136 OA
HETATM   18  N   UNL     1       4.930  15.518  91.244  1.00  0.00     0.142 N 
HETATM   19  HN  UNL     1       5.789  15.849  90.907  1.00  0.00     0.338 HD
BRANCH  18  20
HETATM   20  S   UNL     1       4.478  15.220  92.525  1.00  0.00     0.076 SA
HETATM   21  H   UNL     1       3.938  16.099  93.116  1.00  0.00     0.136 HD
ENDBRANCH  18  20
ENDBRANCH  11  16
ENDBRANCH   9  11
ENDBRANCH   1   7
BRANCH   4  22
HETATM   22  C   UNL     1       8.208   7.693  90.408  1.00  0.00    -0.059 C 
HETATM   23  C   UNL     1       8.975   6.798  90.650  1.00  0.00    -0.059 C 
BRANCH  23  24
HETATM   24  C   UNL     1       9.888   5.734  90.936  1.00  0.00     0.042 A 
HETATM   25  C   UNL     1      10.077   5.316  92.253  1.00  0.00     0.008 A 
HETATM   26  C   UNL     1      10.969   4.280  92.532  1.00  0.00    -0.002 A 
HETATM   27  C   UNL     1      11.668   3.662  91.495  1.00  0.00     0.011 A 
HETATM   28  C   UNL     1      11.476   4.082  90.178  1.00  0.00    -0.002 A 
HETATM   29  C   UNL     1      10.585   5.118  89.899  1.00  0.00     0.008 A 
BRANCH  27  30
HETATM   30  C   UNL     1      12.619   2.554  91.795  1.00  0.00     0.277 C 
BRANCH  30  31
HETATM   31  N   UNL     1      13.624   2.935  92.784  1.00  0.00     0.147 N 
HETATM   32  C   UNL     1      14.503   1.799  93.098  1.00  0.00     0.283 C 
HETATM   33  C   UNL     1      15.550   2.224  94.124  1.00  0.00     0.178 C 
HETATM   34  O   UNL     1      16.315   3.324  93.628  1.00  0.00    -0.350 OA
HETATM   35  C   UNL     1      15.472   4.443  93.350  1.00  0.00     0.178 C 
HETATM   36  C   UNL     1      14.423   4.072  92.307  1.00  0.00     0.283 C 
ENDBRANCH  30  31
ENDBRANCH  27  30
ENDBRANCH  23  24
ENDBRANCH   4  22
TORSDOF 10
ENDMDL
