MODEL 1
REMARK VINA RESULT:      -7.6      0.000      0.000
REMARK  9 active torsions:
REMARK  status: ('A' for Active; 'I' for Inactive)
REMARK    1  A    between atoms: N_3  and  C_6 
REMARK    2  A    between atoms: C_6  and  C_9 
REMARK    3  A    between atoms: C_14  and  C_17 
REMARK       I    between atoms: N_26  and  C_15 
REMARK    4  A    between atoms: C_15  and  C_16 
REMARK    5  A    between atoms: C_20  and  C_23 
REMARK    6  A    between atoms: OG1_24  and  CB_28 
REMARK    7  A    between atoms: N_26  and  CA_27 
REMARK    8  A    between atoms: CA_27  and  CB_28 
REMARK    9  A    between atoms: CA_27  and  C_30 
ROOT
HETATM    1  O   UNK A   0       1.971   8.083  87.818  1.00  0.00    -0.388 OA
HETATM    2  N   UNK A   0       4.759   7.533  87.670  1.00  0.00     0.096 N 
HETATM    3  C   UNK A   0       4.253   8.907  87.785  1.00  0.00     0.299 C 
HETATM    4  C   UNK A   0       3.771   6.688  86.984  1.00  0.00     0.299 C 
HETATM    5  C   UNK A   0       2.911   8.905  88.513  1.00  0.00     0.198 C 
HETATM    6  C   UNK A   0       2.441   6.738  87.729  1.00  0.00     0.198 C 
ENDROOT
BRANCH   2   7
HETATM    7  C   UNK A   0       6.040   7.510  86.966  1.00  0.00     0.311 C 
BRANCH   7   8
HETATM    8  C   UNK A   0       7.128   6.903  87.785  1.00  0.00    -0.030 A 
HETATM    9  C   UNK A   0       6.910   6.625  89.136  1.00  0.00     0.010 A 
HETATM   10  C   UNK A   0       7.928   6.060  89.904  1.00  0.00     0.021 A 
HETATM   11  C   UNK A   0       9.161   5.770  89.321  1.00  0.00     0.018 A 
HETATM   12  C   UNK A   0       9.379   6.047  87.973  1.00  0.00     0.021 A 
HETATM   13  C   UNK A   0       8.363   6.614  87.204  1.00  0.00     0.010 A 
BRANCH  11  14
HETATM   14  C   UNK A   0      10.204   5.188  90.108  1.00  0.00    -0.061 C 
HETATM   15  C   UNK A   0      11.081   4.699  90.770  1.00  0.00    -0.061 C 
BRANCH  15  16
HETATM   16  C   UNK A   0      12.123   4.118  91.558  1.00  0.00     0.018 A 
HETATM   17  C   UNK A   0      13.391   3.932  91.007  1.00  0.00     0.022 A 
HETATM   18  C   UNK A   0      14.408   3.367  91.777  1.00  0.00     0.018 A 
HETATM   19  C   UNK A   0      14.135   3.002  93.078  1.00  0.00     0.032 A 
HETATM   20  C   UNK A   0      12.890   3.175  93.645  1.00  0.00     0.018 A 
HETATM   21  C   UNK A   0      11.872   3.740  92.877  1.00  0.00     0.022 A 
BRANCH  19  22
HETATM   22  C   UNK A   0      15.219   2.399  93.897  1.00  0.00     0.252 C 
HETATM   23  O   UNK A   0      16.375   2.780  93.736  1.00  0.00    -0.268 OA
ENDBRANCH  19  22
ENDBRANCH  15  16
ENDBRANCH  11  14
ENDBRANCH   7   8
ENDBRANCH   2   7
TORSDOF 9
ENDMDL
MODEL 2
REMARK VINA RESULT:      -7.5      0.117      1.428
REMARK  9 active torsions:
REMARK  status: ('A' for Active; 'I' for Inactive)
REMARK    1  A    between atoms: N_3  and  C_6 
REMARK    2  A    between atoms: C_6  and  C_9 
REMARK    3  A    between atoms: C_14  and  C_17 
REMARK       I    between atoms: N_26  and  C_15 
REMARK    4  A    between atoms: C_15  and  C_16 
REMARK    5  A    between atoms: C_20  and  C_23 
REMARK    6  A    between atoms: OG1_24  and  CB_28 
REMARK    7  A    between atoms: N_26  and  CA_27 
REMARK    8  A    between atoms: CA_27  and  CB_28 
REMARK    9  A    between atoms: CA_27  and  C_30 
ROOT
HETATM    1  O   UNK A   0       1.860   8.014  87.911  1.00  0.00    -0.388 OA
HETATM    2  N   UNK A   0       4.663   7.545  87.751  1.00  0.00     0.096 N 
HETATM    3  C   UNK A   0       4.117   8.906  87.844  1.00  0.00     0.299 C 
HETATM    4  C   UNK A   0       3.697   6.658  87.090  1.00  0.00     0.299 C 
HETATM    5  C   UNK A   0       2.780   8.877  88.582  1.00  0.00     0.198 C 
HETATM    6  C   UNK A   0       2.371   6.682  87.845  1.00  0.00     0.198 C 
ENDROOT
BRANCH   2   7
HETATM    7  C   UNK A   0       5.939   7.547  87.038  1.00  0.00     0.311 C 
BRANCH   7   8
HETATM    8  C   UNK A   0       7.041   6.946  87.843  1.00  0.00    -0.030 A 
HETATM    9  C   UNK A   0       8.239   6.587  87.225  1.00  0.00     0.010 A 
HETATM   10  C   UNK A   0       9.270   6.023  87.976  1.00  0.00     0.021 A 
HETATM   11  C   UNK A   0       9.102   5.820  89.346  1.00  0.00     0.018 A 
HETATM   12  C   UNK A   0       7.906   6.178  89.964  1.00  0.00     0.021 A 
HETATM   13  C   UNK A   0       6.875   6.742  89.213  1.00  0.00     0.010 A 
BRANCH  11  14
HETATM   14  C   UNK A   0      10.160   5.243  90.117  1.00  0.00    -0.061 C 
HETATM   15  C   UNK A   0      11.049   4.757  90.765  1.00  0.00    -0.061 C 
BRANCH  15  16
HETATM   16  C   UNK A   0      12.107   4.180  91.534  1.00  0.00     0.018 A 
HETATM   17  C   UNK A   0      11.891   3.841  92.870  1.00  0.00     0.022 A 
HETATM   18  C   UNK A   0      12.922   3.276  93.620  1.00  0.00     0.018 A 
HETATM   19  C   UNK A   0      14.145   3.062  93.018  1.00  0.00     0.032 A 
HETATM   20  C   UNK A   0      14.383   3.390  91.700  1.00  0.00     0.018 A 
HETATM   21  C   UNK A   0      13.353   3.955  90.949  1.00  0.00     0.022 A 
BRANCH  19  22
HETATM   22  C   UNK A   0      15.244   2.462  93.819  1.00  0.00     0.252 C 
HETATM   23  O   UNK A   0      16.383   2.907  93.702  1.00  0.00    -0.268 OA
ENDBRANCH  19  22
ENDBRANCH  15  16
ENDBRANCH  11  14
ENDBRANCH   7   8
ENDBRANCH   2   7
TORSDOF 9
ENDMDL
MODEL 3
REMARK VINA RESULT:      -7.5      0.552      1.148
REMARK  9 active torsions:
REMARK  status: ('A' for Active; 'I' for Inactive)
REMARK    1  A    between atoms: N_3  and  C_6 
REMARK    2  A    between atoms: C_6  and  C_9 
REMARK    3  A    between atoms: C_14  and  C_17 
REMARK       I    between atoms: N_26  and  C_15 
REMARK    4  A    between atoms: C_15  and  C_16 
REMARK    5  A    between atoms: C_20  and  C_23 
REMARK    6  A    between atoms: OG1_24  and  CB_28 
REMARK    7  A    between atoms: N_26  and  CA_27 
REMARK    8  A    between atoms: CA_27  and  CB_28 
REMARK    9  A    between atoms: CA_27  and  C_30 
ROOT
HETATM    1  O   UNK A   0       1.905   9.093  88.262  1.00  0.00    -0.388 OA
HETATM    2  N   UNK A   0       4.474   7.938  87.853  1.00  0.00     0.096 N 
HETATM    3  C   UNK A   0       4.274   9.393  87.827  1.00  0.00     0.299 C 
HETATM    4  C   UNK A   0       3.247   7.253  87.425  1.00  0.00     0.299 C 
HETATM    5  C   UNK A   0       3.084   9.766  88.707  1.00  0.00     0.198 C 
HETATM    6  C   UNK A   0       2.081   7.676  88.313  1.00  0.00     0.198 C 
ENDROOT
BRANCH   2   7
HETATM    7  C   UNK A   0       5.604   7.556  87.007  1.00  0.00     0.311 C 
BRANCH   7   8
HETATM    8  C   UNK A   0       6.726   6.964  87.791  1.00  0.00    -0.030 A 
HETATM    9  C   UNK A   0       6.506   6.523  89.097  1.00  0.00     0.010 A 
HETATM   10  C   UNK A   0       7.555   5.971  89.832  1.00  0.00     0.021 A 
HETATM   11  C   UNK A   0       8.822   5.859  89.260  1.00  0.00     0.018 A 
HETATM   12  C   UNK A   0       9.043   6.299  87.957  1.00  0.00     0.021 A 
HETATM   13  C   UNK A   0       7.994   6.851  87.222  1.00  0.00     0.010 A 
BRANCH  11  14
HETATM   14  C   UNK A   0       9.898   5.290  90.014  1.00  0.00    -0.061 C 
HETATM   15  C   UNK A   0      10.801   4.812  90.647  1.00  0.00    -0.061 C 
BRANCH  15  16
HETATM   16  C   UNK A   0      11.876   4.244  91.399  1.00  0.00     0.018 A 
HETATM   17  C   UNK A   0      11.681   3.891  92.735  1.00  0.00     0.022 A 
HETATM   18  C   UNK A   0      12.729   3.334  93.468  1.00  0.00     0.018 A 
HETATM   19  C   UNK A   0      13.946   3.142  92.850  1.00  0.00     0.032 A 
HETATM   20  C   UNK A   0      14.164   3.482  91.531  1.00  0.00     0.018 A 
HETATM   21  C   UNK A   0      13.117   4.040  90.797  1.00  0.00     0.022 A 
BRANCH  19  22
HETATM   22  C   UNK A   0      15.063   2.550  93.632  1.00  0.00     0.252 C 
HETATM   23  O   UNK A   0      16.216   2.900  93.390  1.00  0.00    -0.268 OA
ENDBRANCH  19  22
ENDBRANCH  15  16
ENDBRANCH  11  14
ENDBRANCH   7   8
ENDBRANCH   2   7
TORSDOF 9
ENDMDL
MODEL 4
REMARK VINA RESULT:      -6.9      1.585      2.353
REMARK  9 active torsions:
REMARK  status: ('A' for Active; 'I' for Inactive)
REMARK    1  A    between atoms: N_3  and  C_6 
REMARK    2  A    between atoms: C_6  and  C_9 
REMARK    3  A    between atoms: C_14  and  C_17 
REMARK       I    between atoms: N_26  and  C_15 
REMARK    4  A    between atoms: C_15  and  C_16 
REMARK    5  A    between atoms: C_20  and  C_23 
REMARK    6  A    between atoms: OG1_24  and  CB_28 
REMARK    7  A    between atoms: N_26  and  CA_27 
REMARK    8  A    between atoms: CA_27  and  CB_28 
REMARK    9  A    between atoms: CA_27  and  C_30 
ROOT
HETATM    1  O   UNK A   0       2.737  11.292  89.658  1.00  0.00    -0.388 OA
HETATM    2  N   UNK A   0       4.575   9.328  88.728  1.00  0.00     0.096 N 
HETATM    3  C   UNK A   0       3.821  10.177  87.795  1.00  0.00     0.299 C 
HETATM    4  C   UNK A   0       3.810   9.139  89.967  1.00  0.00     0.299 C 
HETATM    5  C   UNK A   0       3.488  11.509  88.462  1.00  0.00     0.198 C 
HETATM    6  C   UNK A   0       3.477  10.494  90.583  1.00  0.00     0.198 C 
ENDROOT
BRANCH   2   7
HETATM    7  C   UNK A   0       4.896   8.042  88.113  1.00  0.00     0.311 C 
BRANCH   7   8
HETATM    8  C   UNK A   0       6.105   7.410  88.715  1.00  0.00    -0.030 A 
HETATM    9  C   UNK A   0       7.353   8.018  88.573  1.00  0.00     0.010 A 
HETATM   10  C   UNK A   0       8.484   7.426  89.134  1.00  0.00     0.021 A 
HETATM   11  C   UNK A   0       8.367   6.229  89.839  1.00  0.00     0.018 A 
HETATM   12  C   UNK A   0       7.121   5.621  89.981  1.00  0.00     0.021 A 
HETATM   13  C   UNK A   0       5.989   6.211  89.420  1.00  0.00     0.010 A 
BRANCH  11  14
HETATM   14  C   UNK A   0       9.527   5.623  90.416  1.00  0.00    -0.061 C 
HETATM   15  C   UNK A   0      10.503   5.115  90.902  1.00  0.00    -0.061 C 
BRANCH  15  16
HETATM   16  C   UNK A   0      11.662   4.510  91.480  1.00  0.00     0.018 A 
HETATM   17  C   UNK A   0      11.632   4.072  92.805  1.00  0.00     0.022 A 
HETATM   18  C   UNK A   0      12.762   3.479  93.367  1.00  0.00     0.018 A 
HETATM   19  C   UNK A   0      13.895   3.337  92.594  1.00  0.00     0.032 A 
HETATM   20  C   UNK A   0      13.950   3.761  91.283  1.00  0.00     0.018 A 
HETATM   21  C   UNK A   0      12.820   4.354  90.719  1.00  0.00     0.022 A 
BRANCH  19  22
HETATM   22  C   UNK A   0      15.100   2.707  93.195  1.00  0.00     0.252 C 
HETATM   23  O   UNK A   0      14.960   1.889  94.101  1.00  0.00    -0.268 OA
ENDBRANCH  19  22
ENDBRANCH  15  16
ENDBRANCH  11  14
ENDBRANCH   7   8
ENDBRANCH   2   7
TORSDOF 9
ENDMDL
MODEL 5
REMARK VINA RESULT:      -6.6      3.927     10.467
REMARK  9 active torsions:
REMARK  status: ('A' for Active; 'I' for Inactive)
REMARK    1  A    between atoms: N_3  and  C_6 
REMARK    2  A    between atoms: C_6  and  C_9 
REMARK    3  A    between atoms: C_14  and  C_17 
REMARK       I    between atoms: N_26  and  C_15 
REMARK    4  A    between atoms: C_15  and  C_16 
REMARK    5  A    between atoms: C_20  and  C_23 
REMARK    6  A    between atoms: OG1_24  and  CB_28 
REMARK    7  A    between atoms: N_26  and  CA_27 
REMARK    8  A    between atoms: CA_27  and  CB_28 
REMARK    9  A    between atoms: CA_27  and  C_30 
ROOT
HETATM    1  O   UNK A   0      14.657   3.413  92.180  1.00  0.00    -0.388 OA
HETATM    2  N   UNK A   0      11.922   4.201  92.235  1.00  0.00     0.096 N 
HETATM    3  C   UNK A   0      12.493   3.336  93.276  1.00  0.00     0.299 C 
HETATM    4  C   UNK A   0      12.641   4.006  90.968  1.00  0.00     0.299 C 
HETATM    5  C   UNK A   0      13.985   3.620  93.424  1.00  0.00     0.198 C 
HETATM    6  C   UNK A   0      14.129   4.273  91.170  1.00  0.00     0.198 C 
ENDROOT
BRANCH   2   7
HETATM    7  C   UNK A   0      10.494   3.938  92.068  1.00  0.00     0.311 C 
BRANCH   7   8
HETATM    8  C   UNK A   0       9.715   5.181  91.798  1.00  0.00    -0.030 A 
HETATM    9  C   UNK A   0       9.846   6.282  92.645  1.00  0.00     0.010 A 
HETATM   10  C   UNK A   0       9.116   7.444  92.394  1.00  0.00     0.021 A 
HETATM   11  C   UNK A   0       8.259   7.505  91.296  1.00  0.00     0.018 A 
HETATM   12  C   UNK A   0       8.128   6.406  90.450  1.00  0.00     0.021 A 
HETATM   13  C   UNK A   0       8.857   5.243  90.701  1.00  0.00     0.010 A 
BRANCH  11  14
HETATM   14  C   UNK A   0       7.512   8.698  91.038  1.00  0.00    -0.061 C 
HETATM   15  C   UNK A   0       6.884   9.700  90.820  1.00  0.00    -0.061 C 
BRANCH  15  16
HETATM   16  C   UNK A   0       6.138  10.892  90.562  1.00  0.00     0.018 A 
HETATM   17  C   UNK A   0       5.258  11.385  91.527  1.00  0.00     0.022 A 
HETATM   18  C   UNK A   0       4.531  12.549  91.275  1.00  0.00     0.018 A 
HETATM   19  C   UNK A   0       4.701  13.193  90.068  1.00  0.00     0.032 A 
HETATM   20  C   UNK A   0       5.564  12.726  89.099  1.00  0.00     0.018 A 
HETATM   21  C   UNK A   0       6.291  11.562  89.349  1.00  0.00     0.022 A 
BRANCH  19  22
HETATM   22  C   UNK A   0       3.925  14.432  89.801  1.00  0.00     0.252 C 
HETATM   23  O   UNK A   0       4.513  15.510  89.759  1.00  0.00    -0.268 OA
ENDBRANCH  19  22
ENDBRANCH  15  16
ENDBRANCH  11  14
ENDBRANCH   7   8
ENDBRANCH   2   7
TORSDOF 9
ENDMDL
MODEL 6
REMARK VINA RESULT:      -6.6      3.930     10.414
REMARK  9 active torsions:
REMARK  status: ('A' for Active; 'I' for Inactive)
REMARK    1  A    between atoms: N_3  and  C_6 
REMARK    2  A    between atoms: C_6  and  C_9 
REMARK    3  A    between atoms: C_14  and  C_17 
REMARK       I    between atoms: N_26  and  C_15 
REMARK    4  A    between atoms: C_15  and  C_16 
REMARK    5  A    between atoms: C_20  and  C_23 
REMARK    6  A    between atoms: OG1_24  and  CB_28 
REMARK    7  A    between atoms: N_26  and  CA_27 
REMARK    8  A    between atoms: CA_27  and  CB_28 
REMARK    9  A    between atoms: CA_27  and  C_30 
ROOT
HETATM    1  O   UNK A   0      14.555   3.353  91.959  1.00  0.00    -0.388 OA
HETATM    2  N   UNK A   0      11.849   4.169  92.297  1.00  0.00     0.096 N 
HETATM    3  C   UNK A   0      12.494   3.240  93.235  1.00  0.00     0.299 C 
HETATM    4  C   UNK A   0      12.452   4.035  90.963  1.00  0.00     0.299 C 
HETATM    5  C   UNK A   0      13.998   3.499  93.267  1.00  0.00     0.198 C 
HETATM    6  C   UNK A   0      13.956   4.274  91.047  1.00  0.00     0.198 C 
ENDROOT
BRANCH   2   7
HETATM    7  C   UNK A   0      10.408   3.933  92.242  1.00  0.00     0.311 C 
BRANCH   7   8
HETATM    8  C   UNK A   0       9.639   5.174  91.943  1.00  0.00    -0.030 A 
HETATM    9  C   UNK A   0       9.865   6.330  92.691  1.00  0.00     0.010 A 
HETATM   10  C   UNK A   0       9.145   7.492  92.413  1.00  0.00     0.021 A 
HETATM   11  C   UNK A   0       8.202   7.498  91.386  1.00  0.00     0.018 A 
HETATM   12  C   UNK A   0       7.976   6.344  90.638  1.00  0.00     0.021 A 
HETATM   13  C   UNK A   0       8.695   5.182  90.916  1.00  0.00     0.010 A 
BRANCH  11  14
HETATM   14  C   UNK A   0       7.465   8.690  91.100  1.00  0.00    -0.061 C 
HETATM   15  C   UNK A   0       6.845   9.692  90.858  1.00  0.00    -0.061 C 
BRANCH  15  16
HETATM   16  C   UNK A   0       6.108  10.883  90.572  1.00  0.00     0.018 A 
HETATM   17  C   UNK A   0       6.208  11.479  89.314  1.00  0.00     0.022 A 
HETATM   18  C   UNK A   0       5.487  12.639  89.034  1.00  0.00     0.018 A 
HETATM   19  C   UNK A   0       4.682  13.178  90.017  1.00  0.00     0.032 A 
HETATM   20  C   UNK A   0       4.567  12.608  91.268  1.00  0.00     0.018 A 
HETATM   21  C   UNK A   0       5.288  11.448  91.549  1.00  0.00     0.022 A 
BRANCH  19  22
HETATM   22  C   UNK A   0       3.916  14.415  89.719  1.00  0.00     0.252 C 
HETATM   23  O   UNK A   0       4.478  15.504  89.801  1.00  0.00    -0.268 OA
ENDBRANCH  19  22
ENDBRANCH  15  16
ENDBRANCH  11  14
ENDBRANCH   7   8
ENDBRANCH   2   7
TORSDOF 9
ENDMDL
MODEL 7
REMARK VINA RESULT:      -6.4      3.582     10.294
REMARK  9 active torsions:
REMARK  status: ('A' for Active; 'I' for Inactive)
REMARK    1  A    between atoms: N_3  and  C_6 
REMARK    2  A    between atoms: C_6  and  C_9 
REMARK    3  A    between atoms: C_14  and  C_17 
REMARK       I    between atoms: N_26  and  C_15 
REMARK    4  A    between atoms: C_15  and  C_16 
REMARK    5  A    between atoms: C_20  and  C_23 
REMARK    6  A    between atoms: OG1_24  and  CB_28 
REMARK    7  A    between atoms: N_26  and  CA_27 
REMARK    8  A    between atoms: CA_27  and  CB_28 
REMARK    9  A    between atoms: CA_27  and  C_30 
ROOT
HETATM    1  O   UNK A   0      14.135   2.902  92.813  1.00  0.00    -0.388 OA
HETATM    2  N   UNK A   0      12.124   4.112  91.202  1.00  0.00     0.096 N 
HETATM    3  C   UNK A   0      11.838   2.932  92.030  1.00  0.00     0.299 C 
HETATM    4  C   UNK A   0      13.537   4.112  90.797  1.00  0.00     0.299 C 
HETATM    5  C   UNK A   0      12.771   2.910  93.238  1.00  0.00     0.198 C 
HETATM    6  C   UNK A   0      14.430   4.061  92.032  1.00  0.00     0.198 C 
ENDROOT
BRANCH   2   7
HETATM    7  C   UNK A   0      11.248   4.148  90.032  1.00  0.00     0.311 C 
BRANCH   7   8
HETATM    8  C   UNK A   0      10.368   5.351  90.019  1.00  0.00    -0.030 A 
HETATM    9  C   UNK A   0       9.904   5.888  91.220  1.00  0.00     0.010 A 
HETATM   10  C   UNK A   0       9.078   7.012  91.208  1.00  0.00     0.021 A 
HETATM   11  C   UNK A   0       8.720   7.600  89.996  1.00  0.00     0.018 A 
HETATM   12  C   UNK A   0       9.183   7.065  88.795  1.00  0.00     0.021 A 
HETATM   13  C   UNK A   0      10.008   5.940  88.807  1.00  0.00     0.010 A 
BRANCH  11  14
HETATM   14  C   UNK A   0       7.875   8.755  89.984  1.00  0.00    -0.061 C 
HETATM   15  C   UNK A   0       7.165   9.725  89.973  1.00  0.00    -0.061 C 
BRANCH  15  16
HETATM   16  C   UNK A   0       6.320  10.878  89.962  1.00  0.00     0.018 A 
HETATM   17  C   UNK A   0       6.446  11.823  88.943  1.00  0.00     0.022 A 
HETATM   18  C   UNK A   0       5.620  12.947  88.931  1.00  0.00     0.018 A 
HETATM   19  C   UNK A   0       4.687  13.100  89.935  1.00  0.00     0.032 A 
HETATM   20  C   UNK A   0       4.543  12.180  90.952  1.00  0.00     0.018 A 
HETATM   21  C   UNK A   0       5.369  11.056  90.966  1.00  0.00     0.022 A 
BRANCH  19  22
HETATM   22  C   UNK A   0       3.808  14.298  89.922  1.00  0.00     0.252 C 
HETATM   23  O   UNK A   0       2.608  14.165  90.150  1.00  0.00    -0.268 OA
ENDBRANCH  19  22
ENDBRANCH  15  16
ENDBRANCH  11  14
ENDBRANCH   7   8
ENDBRANCH   2   7
TORSDOF 9
ENDMDL
MODEL 8
REMARK VINA RESULT:      -6.4      1.165      1.899
REMARK  9 active torsions:
REMARK  status: ('A' for Active; 'I' for Inactive)
REMARK    1  A    between atoms: N_3  and  C_6 
REMARK    2  A    between atoms: C_6  and  C_9 
REMARK    3  A    between atoms: C_14  and  C_17 
REMARK       I    between atoms: N_26  and  C_15 
REMARK    4  A    between atoms: C_15  and  C_16 
REMARK    5  A    between atoms: C_20  and  C_23 
REMARK    6  A    between atoms: OG1_24  and  CB_28 
REMARK    7  A    between atoms: N_26  and  CA_27 
REMARK    8  A    between atoms: CA_27  and  CB_28 
REMARK    9  A    between atoms: CA_27  and  C_30 
ROOT
HETATM    1  O   UNK A   0       4.149  10.140  90.141  1.00  0.00    -0.388 OA
HETATM    2  N   UNK A   0       5.025   8.627  87.895  1.00  0.00     0.096 N 
HETATM    3  C   UNK A   0       3.725   8.374  88.532  1.00  0.00     0.299 C 
HETATM    4  C   UNK A   0       5.975   9.157  88.883  1.00  0.00     0.299 C 
HETATM    5  C   UNK A   0       3.208   9.655  89.181  1.00  0.00     0.198 C 
HETATM    6  C   UNK A   0       5.406  10.418  89.524  1.00  0.00     0.198 C 
ENDROOT
BRANCH   2   7
HETATM    7  C   UNK A   0       5.544   7.409  87.276  1.00  0.00     0.311 C 
BRANCH   7   8
HETATM    8  C   UNK A   0       6.694   6.834  88.030  1.00  0.00    -0.030 A 
HETATM    9  C   UNK A   0       7.983   6.914  87.503  1.00  0.00     0.010 A 
HETATM   10  C   UNK A   0       9.059   6.374  88.207  1.00  0.00     0.021 A 
HETATM   11  C   UNK A   0       8.846   5.756  89.439  1.00  0.00     0.018 A 
HETATM   12  C   UNK A   0       7.559   5.676  89.967  1.00  0.00     0.021 A 
HETATM   13  C   UNK A   0       6.482   6.215  89.263  1.00  0.00     0.010 A 
BRANCH  11  14
HETATM   14  C   UNK A   0       9.950   5.204  90.162  1.00  0.00    -0.061 C 
HETATM   15  C   UNK A   0      10.878   4.741  90.770  1.00  0.00    -0.061 C 
BRANCH  15  16
HETATM   16  C   UNK A   0      11.982   4.191  91.493  1.00  0.00     0.018 A 
HETATM   17  C   UNK A   0      13.235   4.096  90.886  1.00  0.00     0.022 A 
HETATM   18  C   UNK A   0      14.312   3.561  91.593  1.00  0.00     0.018 A 
HETATM   19  C   UNK A   0      14.112   3.134  92.890  1.00  0.00     0.032 A 
HETATM   20  C   UNK A   0      12.884   3.217  93.511  1.00  0.00     0.018 A 
HETATM   21  C   UNK A   0      11.806   3.751  92.805  1.00  0.00     0.022 A 
BRANCH  19  22
HETATM   22  C   UNK A   0      15.260   2.563  93.641  1.00  0.00     0.252 C 
HETATM   23  O   UNK A   0      16.292   3.219  93.750  1.00  0.00    -0.268 OA
ENDBRANCH  19  22
ENDBRANCH  15  16
ENDBRANCH  11  14
ENDBRANCH   7   8
ENDBRANCH   2   7
TORSDOF 9
ENDMDL
MODEL 9
REMARK VINA RESULT:      -6.3      1.879      2.951
REMARK  9 active torsions:
REMARK  status: ('A' for Active; 'I' for Inactive)
REMARK    1  A    between atoms: N_3  and  C_6 
REMARK    2  A    between atoms: C_6  and  C_9 
REMARK    3  A    between atoms: C_14  and  C_17 
REMARK       I    between atoms: N_26  and  C_15 
REMARK    4  A    between atoms: C_15  and  C_16 
REMARK    5  A    between atoms: C_20  and  C_23 
REMARK    6  A    between atoms: OG1_24  and  CB_28 
REMARK    7  A    between atoms: N_26  and  CA_27 
REMARK    8  A    between atoms: CA_27  and  CB_28 
REMARK    9  A    between atoms: CA_27  and  C_30 
ROOT
HETATM    1  O   UNK A   0       2.004   9.494  87.873  1.00  0.00    -0.388 OA
HETATM    2  N   UNK A   0       3.565   8.201  89.871  1.00  0.00     0.096 N 
HETATM    3  C   UNK A   0       2.302   7.624  89.391  1.00  0.00     0.299 C 
HETATM    4  C   UNK A   0       3.527   9.665  89.753  1.00  0.00     0.299 C 
HETATM    5  C   UNK A   0       2.044   8.068  87.954  1.00  0.00     0.198 C 
HETATM    6  C   UNK A   0       3.240  10.061  88.308  1.00  0.00     0.198 C 
ENDROOT
BRANCH   2   7
HETATM    7  C   UNK A   0       3.827   7.797  91.252  1.00  0.00     0.311 C 
BRANCH   7   8
HETATM    8  C   UNK A   0       5.180   7.193  91.420  1.00  0.00    -0.030 A 
HETATM    9  C   UNK A   0       5.891   6.754  90.302  1.00  0.00     0.010 A 
HETATM   10  C   UNK A   0       7.155   6.187  90.459  1.00  0.00     0.021 A 
HETATM   11  C   UNK A   0       7.709   6.061  91.732  1.00  0.00     0.018 A 
HETATM   12  C   UNK A   0       7.000   6.499  92.849  1.00  0.00     0.021 A 
HETATM   13  C   UNK A   0       5.735   7.065  92.693  1.00  0.00     0.010 A 
BRANCH  11  14
HETATM   14  C   UNK A   0       9.007   5.480  91.892  1.00  0.00    -0.061 C 
HETATM   15  C   UNK A   0      10.097   4.992  92.027  1.00  0.00    -0.061 C 
BRANCH  15  16
HETATM   16  C   UNK A   0      11.394   4.412  92.186  1.00  0.00     0.018 A 
HETATM   17  C   UNK A   0      11.789   3.921  93.431  1.00  0.00     0.022 A 
HETATM   18  C   UNK A   0      13.054   3.352  93.585  1.00  0.00     0.018 A 
HETATM   19  C   UNK A   0      13.893   3.287  92.493  1.00  0.00     0.032 A 
HETATM   20  C   UNK A   0      13.526   3.765  91.252  1.00  0.00     0.018 A 
HETATM   21  C   UNK A   0      12.262   4.334  91.097  1.00  0.00     0.022 A 
BRANCH  19  22
HETATM   22  C   UNK A   0      15.241   2.683  92.658  1.00  0.00     0.252 C 
HETATM   23  O   UNK A   0      15.761   2.672  93.771  1.00  0.00    -0.268 OA
ENDBRANCH  19  22
ENDBRANCH  15  16
ENDBRANCH  11  14
ENDBRANCH   7   8
ENDBRANCH   2   7
TORSDOF 9
ENDMDL
