MODEL 1
REMARK VINA RESULT:      -6.8      0.000      0.000
REMARK  10 active torsions:
REMARK  status: ('A' for Active; 'I' for Inactive)
REMARK    1  A    between atoms: O_2  and  C_16 
REMARK    2  A    between atoms: N_5  and  C_9 
REMARK    3  A    between atoms: N_6  and  C_13 
REMARK       I    between atoms: N_6  and  C_22 
REMARK    4  A    between atoms: C_9  and  C_12 
REMARK    5  A    between atoms: C_13  and  C_16 
REMARK    6  A    between atoms: C_13  and  C_21 
REMARK    7  A    between atoms: C_19  and  C_24 
REMARK    8  A    between atoms: C_22  and  C_23 
REMARK    9  A    between atoms: C_27  and  C_30 
REMARK   10  A    between atoms: N_33  and  S_34 
ROOT
HETATM    1  C   UNL     1       5.676  11.144  89.810  1.00  0.00     0.056 A 
HETATM    2  C   UNL     1       5.159   9.998  90.376  1.00  0.00     0.005 A 
HETATM    3  C   UNL     1       7.012  11.268  89.489  1.00  0.00     0.005 A 
HETATM    4  C   UNL     1       7.370   9.028  90.318  1.00  0.00     0.042 A 
HETATM    5  C   UNL     1       6.015   8.927  90.634  1.00  0.00     0.008 A 
HETATM    6  C   UNL     1       7.869  10.198  89.746  1.00  0.00     0.008 A 
ENDROOT
BRANCH   1   7
HETATM    7  C   UNL     1       4.763  12.283  89.534  1.00  0.00     0.254 C 
HETATM    8  O   UNL     1       4.597  12.651  88.374  1.00  0.00    -0.268 OA
HETATM    9  N   UNL     1       4.135  12.840  90.639  1.00  0.00    -0.337 N 
HETATM   10  HN  UNL     1       4.301  12.467  91.566  1.00  0.00     0.164 HD
BRANCH   9  11
HETATM   11  C   UNL     1       3.203  13.934  90.532  1.00  0.00     0.172 C 
BRANCH  11  12
HETATM   12  C   UNL     1       1.867  13.647  91.228  1.00  0.00     0.136 C 
HETATM   13  C   UNL     1       1.942  12.443  92.161  1.00  0.00     0.034 C 
BRANCH  12  14
HETATM   14  O   UNL     1       1.465  14.791  91.980  1.00  0.00    -0.383 OA
HETATM   15  H   UNL     1       0.614  15.103  91.629  1.00  0.00     0.210 HD
ENDBRANCH  12  14
ENDBRANCH  11  12
BRANCH  11  16
HETATM   16  C   UNL     1       3.874  15.176  91.111  1.00  0.00     0.398 A 
HETATM   17  O   UNL     1       4.966  15.589  90.723  1.00  0.00    -0.136 OA
HETATM   18  N   UNL     1       4.898  15.620  92.241  1.00  0.00     0.142 N 
HETATM   19  HN  UNL     1       5.796  15.998  92.130  1.00  0.00     0.338 HD
BRANCH  18  20
HETATM   20  S   UNL     1       4.242  15.072  93.338  1.00  0.00     0.076 SA
HETATM   21  H   UNL     1       4.396  13.909  93.523  1.00  0.00     0.136 HD
ENDBRANCH  18  20
ENDBRANCH  11  16
ENDBRANCH   9  11
ENDBRANCH   1   7
BRANCH   4  22
HETATM   22  C   UNL     1       8.248   7.931  90.585  1.00  0.00    -0.059 C 
HETATM   23  C   UNL     1       8.987   7.010  90.808  1.00  0.00    -0.059 C 
BRANCH  23  24
HETATM   24  C   UNL     1       9.867   5.913  91.075  1.00  0.00     0.042 A 
HETATM   25  C   UNL     1      10.073   5.489  92.388  1.00  0.00     0.008 A 
HETATM   26  C   UNL     1      10.932   4.422  92.648  1.00  0.00    -0.002 A 
HETATM   27  C   UNL     1      11.583   3.778  91.595  1.00  0.00     0.011 A 
HETATM   28  C   UNL     1      11.375   4.203  90.283  1.00  0.00    -0.002 A 
HETATM   29  C   UNL     1      10.517   5.271  90.023  1.00  0.00     0.008 A 
BRANCH  27  30
HETATM   30  C   UNL     1      12.499   2.635  91.874  1.00  0.00     0.277 C 
BRANCH  30  31
HETATM   31  N   UNL     1      13.545   2.982  92.835  1.00  0.00     0.147 N 
HETATM   32  C   UNL     1      14.389   1.816  93.129  1.00  0.00     0.283 C 
HETATM   33  C   UNL     1      15.480   2.205  94.124  1.00  0.00     0.178 C 
HETATM   34  O   UNL     1      16.271   3.274  93.602  1.00  0.00    -0.350 OA
HETATM   35  C   UNL     1      15.463   4.423  93.342  1.00  0.00     0.178 C 
HETATM   36  C   UNL     1      14.372   4.088  92.330  1.00  0.00     0.283 C 
ENDBRANCH  30  31
ENDBRANCH  27  30
ENDBRANCH  23  24
ENDBRANCH   4  22
TORSDOF 10
ENDMDL
MODEL 2
REMARK VINA RESULT:      -6.7      0.689      1.087
REMARK  10 active torsions:
REMARK  status: ('A' for Active; 'I' for Inactive)
REMARK    1  A    between atoms: O_2  and  C_16 
REMARK    2  A    between atoms: N_5  and  C_9 
REMARK    3  A    between atoms: N_6  and  C_13 
REMARK       I    between atoms: N_6  and  C_22 
REMARK    4  A    between atoms: C_9  and  C_12 
REMARK    5  A    between atoms: C_13  and  C_16 
REMARK    6  A    between atoms: C_13  and  C_21 
REMARK    7  A    between atoms: C_19  and  C_24 
REMARK    8  A    between atoms: C_22  and  C_23 
REMARK    9  A    between atoms: C_27  and  C_30 
REMARK   10  A    between atoms: N_33  and  S_34 
ROOT
HETATM    1  C   UNL     1       5.504  10.609  89.417  1.00  0.00     0.056 A 
HETATM    2  C   UNL     1       5.054   9.306  89.381  1.00  0.00     0.005 A 
HETATM    3  C   UNL     1       6.806  10.929  89.743  1.00  0.00     0.005 A 
HETATM    4  C   UNL     1       7.265   8.574  90.019  1.00  0.00     0.042 A 
HETATM    5  C   UNL     1       5.944   8.276  89.686  1.00  0.00     0.008 A 
HETATM    6  C   UNL     1       7.696   9.900  90.048  1.00  0.00     0.008 A 
ENDROOT
BRANCH   1   7
HETATM    7  C   UNL     1       4.557  11.706  89.090  1.00  0.00     0.254 C 
HETATM    8  O   UNL     1       4.310  11.954  87.913  1.00  0.00    -0.268 OA
HETATM    9  N   UNL     1       3.991  12.363  90.174  1.00  0.00    -0.337 N 
HETATM   10  HN  UNL     1       4.223  12.086  91.120  1.00  0.00     0.164 HD
BRANCH   9  11
HETATM   11  C   UNL     1       3.036  13.432  90.020  1.00  0.00     0.172 C 
BRANCH  11  12
HETATM   12  C   UNL     1       1.907  13.372  91.057  1.00  0.00     0.136 C 
HETATM   13  C   UNL     1       2.335  12.683  92.347  1.00  0.00     0.034 C 
BRANCH  12  14
HETATM   14  O   UNL     1       1.469  14.696  91.362  1.00  0.00    -0.383 OA
HETATM   15  H   UNL     1       1.935  15.314  90.775  1.00  0.00     0.210 HD
ENDBRANCH  12  14
ENDBRANCH  11  12
BRANCH  11  16
HETATM   16  C   UNL     1       3.796  14.751  90.104  1.00  0.00     0.398 A 
HETATM   17  O   UNL     1       4.817  14.979  89.456  1.00  0.00    -0.136 OA
HETATM   18  N   UNL     1       4.986  15.450  90.891  1.00  0.00     0.142 N 
HETATM   19  HN  UNL     1       5.858  15.734  90.543  1.00  0.00     0.338 HD
BRANCH  18  20
HETATM   20  S   UNL     1       4.506  15.278  92.184  1.00  0.00     0.076 SA
HETATM   21  H   UNL     1       4.377  16.261  92.839  1.00  0.00     0.136 HD
ENDBRANCH  18  20
ENDBRANCH  11  16
ENDBRANCH   9  11
ENDBRANCH   1   7
BRANCH   4  22
HETATM   22  C   UNL     1       8.177   7.518  90.335  1.00  0.00    -0.059 C 
HETATM   23  C   UNL     1       8.943   6.631  90.601  1.00  0.00    -0.059 C 
BRANCH  23  24
HETATM   24  C   UNL     1       9.855   5.574  90.916  1.00  0.00     0.042 A 
HETATM   25  C   UNL     1      10.751   5.117  89.951  1.00  0.00     0.008 A 
HETATM   26  C   UNL     1      11.639   4.085  90.259  1.00  0.00    -0.002 A 
HETATM   27  C   UNL     1      11.630   3.514  91.531  1.00  0.00     0.011 A 
HETATM   28  C   UNL     1      10.732   3.973  92.495  1.00  0.00    -0.002 A 
HETATM   29  C   UNL     1       9.845   5.004  92.188  1.00  0.00     0.008 A 
BRANCH  27  30
HETATM   30  C   UNL     1      12.580   2.413  91.859  1.00  0.00     0.277 C 
BRANCH  30  31
HETATM   31  N   UNL     1      13.594   2.823  92.830  1.00  0.00     0.147 N 
HETATM   32  C   UNL     1      14.528   1.722  93.102  1.00  0.00     0.283 C 
HETATM   33  C   UNL     1      15.583   2.176  94.108  1.00  0.00     0.178 C 
HETATM   34  O   UNL     1      16.286   3.316  93.611  1.00  0.00    -0.350 OA
HETATM   35  C   UNL     1      15.389   4.401  93.373  1.00  0.00     0.178 C 
HETATM   36  C   UNL     1      14.330   4.001  92.351  1.00  0.00     0.283 C 
ENDBRANCH  30  31
ENDBRANCH  27  30
ENDBRANCH  23  24
ENDBRANCH   4  22
TORSDOF 10
ENDMDL
MODEL 3
REMARK VINA RESULT:      -6.6      1.279      1.368
REMARK  10 active torsions:
REMARK  status: ('A' for Active; 'I' for Inactive)
REMARK    1  A    between atoms: O_2  and  C_16 
REMARK    2  A    between atoms: N_5  and  C_9 
REMARK    3  A    between atoms: N_6  and  C_13 
REMARK       I    between atoms: N_6  and  C_22 
REMARK    4  A    between atoms: C_9  and  C_12 
REMARK    5  A    between atoms: C_13  and  C_16 
REMARK    6  A    between atoms: C_13  and  C_21 
REMARK    7  A    between atoms: C_19  and  C_24 
REMARK    8  A    between atoms: C_22  and  C_23 
REMARK    9  A    between atoms: C_27  and  C_30 
REMARK   10  A    between atoms: N_33  and  S_34 
ROOT
HETATM    1  C   UNL     1       4.941   9.898  90.225  1.00  0.00     0.056 A 
HETATM    2  C   UNL     1       4.877   9.091  91.342  1.00  0.00     0.005 A 
HETATM    3  C   UNL     1       5.975   9.815  89.316  1.00  0.00     0.005 A 
HETATM    4  C   UNL     1       6.949   8.057  90.656  1.00  0.00     0.042 A 
HETATM    5  C   UNL     1       5.892   8.160  91.561  1.00  0.00     0.008 A 
HETATM    6  C   UNL     1       6.991   8.884  89.534  1.00  0.00     0.008 A 
ENDROOT
BRANCH   1   7
HETATM    7  C   UNL     1       3.859  10.889  89.991  1.00  0.00     0.254 C 
HETATM    8  O   UNL     1       2.956  10.616  89.203  1.00  0.00    -0.268 OA
HETATM    9  N   UNL     1       3.944  12.066  90.720  1.00  0.00    -0.337 N 
HETATM   10  HN  UNL     1       4.707  12.212  91.372  1.00  0.00     0.164 HD
BRANCH   9  11
HETATM   11  C   UNL     1       2.959  13.113  90.622  1.00  0.00     0.172 C 
BRANCH  11  12
HETATM   12  C   UNL     1       2.460  13.589  91.992  1.00  0.00     0.136 C 
HETATM   13  C   UNL     1       1.208  12.848  92.447  1.00  0.00     0.034 C 
BRANCH  12  14
HETATM   14  O   UNL     1       3.488  13.404  92.965  1.00  0.00    -0.383 OA
HETATM   15  H   UNL     1       4.293  13.846  92.646  1.00  0.00     0.210 HD
ENDBRANCH  12  14
ENDBRANCH  11  12
BRANCH  11  16
HETATM   16  C   UNL     1       3.574  14.259  89.827  1.00  0.00     0.398 A 
HETATM   17  O   UNL     1       4.277  14.084  88.832  1.00  0.00    -0.136 OA
HETATM   18  N   UNL     1       4.895  15.138  89.736  1.00  0.00     0.142 N 
HETATM   19  HN  UNL     1       5.559  15.161  89.015  1.00  0.00     0.338 HD
BRANCH  18  20
HETATM   20  S   UNL     1       4.917  15.610  91.044  1.00  0.00     0.076 SA
HETATM   21  H   UNL     1       4.722  14.810  91.901  1.00  0.00     0.136 HD
ENDBRANCH  18  20
ENDBRANCH  11  16
ENDBRANCH   9  11
ENDBRANCH   1   7
BRANCH   4  22
HETATM   22  C   UNL     1       7.991   7.104  90.882  1.00  0.00    -0.059 C 
HETATM   23  C   UNL     1       8.866   6.303  91.072  1.00  0.00    -0.059 C 
BRANCH  23  24
HETATM   24  C   UNL     1       9.909   5.349  91.298  1.00  0.00     0.042 A 
HETATM   25  C   UNL     1      10.123   4.842  92.579  1.00  0.00     0.008 A 
HETATM   26  C   UNL     1      11.140   3.914  92.800  1.00  0.00    -0.002 A 
HETATM   27  C   UNL     1      11.941   3.491  91.738  1.00  0.00     0.011 A 
HETATM   28  C   UNL     1      11.725   3.999  90.457  1.00  0.00    -0.002 A 
HETATM   29  C   UNL     1      10.708   4.928  90.237  1.00  0.00     0.008 A 
BRANCH  27  30
HETATM   30  C   UNL     1      13.027   2.497  91.975  1.00  0.00     0.277 C 
BRANCH  30  31
HETATM   31  N   UNL     1      14.046   2.995  92.897  1.00  0.00     0.147 N 
HETATM   32  C   UNL     1      15.056   1.961  93.162  1.00  0.00     0.283 C 
HETATM   33  C   UNL     1      16.115   2.506  94.117  1.00  0.00     0.178 C 
HETATM   34  O   UNL     1      16.728   3.673  93.566  1.00  0.00    -0.350 OA
HETATM   35  C   UNL     1      15.757   4.694  93.334  1.00  0.00     0.178 C 
HETATM   36  C   UNL     1      14.690   4.202  92.361  1.00  0.00     0.283 C 
ENDBRANCH  30  31
ENDBRANCH  27  30
ENDBRANCH  23  24
ENDBRANCH   4  22
TORSDOF 10
ENDMDL
MODEL 4
REMARK VINA RESULT:      -5.6      2.195      2.736
REMARK  10 active torsions:
REMARK  status: ('A' for Active; 'I' for Inactive)
REMARK    1  A    between atoms: O_2  and  C_16 
REMARK    2  A    between atoms: N_5  and  C_9 
REMARK    3  A    between atoms: N_6  and  C_13 
REMARK       I    between atoms: N_6  and  C_22 
REMARK    4  A    between atoms: C_9  and  C_12 
REMARK    5  A    between atoms: C_13  and  C_16 
REMARK    6  A    between atoms: C_13  and  C_21 
REMARK    7  A    between atoms: C_19  and  C_24 
REMARK    8  A    between atoms: C_22  and  C_23 
REMARK    9  A    between atoms: C_27  and  C_30 
REMARK   10  A    between atoms: N_33  and  S_34 
ROOT
HETATM    1  C   UNL     1       4.756  10.681  93.131  1.00  0.00     0.056 A 
HETATM    2  C   UNL     1       6.089  11.031  93.147  1.00  0.00     0.005 A 
HETATM    3  C   UNL     1       4.341   9.366  93.111  1.00  0.00     0.005 A 
HETATM    4  C   UNL     1       6.658   8.684  93.119  1.00  0.00     0.042 A 
HETATM    5  C   UNL     1       7.052  10.022  93.140  1.00  0.00     0.008 A 
HETATM    6  C   UNL     1       5.302   8.355  93.104  1.00  0.00     0.008 A 
ENDROOT
BRANCH   1   7
HETATM    7  C   UNL     1       3.731  11.756  93.141  1.00  0.00     0.254 C 
HETATM    8  O   UNL     1       2.785  11.676  93.921  1.00  0.00    -0.268 OA
HETATM    9  N   UNL     1       3.943  12.807  92.259  1.00  0.00    -0.337 N 
HETATM   10  HN  UNL     1       4.762  12.817  91.661  1.00  0.00     0.164 HD
BRANCH   9  11
HETATM   11  C   UNL     1       3.052  13.935  92.168  1.00  0.00     0.172 C 
BRANCH  11  12
HETATM   12  C   UNL     1       3.409  15.055  93.153  1.00  0.00     0.136 C 
HETATM   13  C   UNL     1       2.197  15.557  93.930  1.00  0.00     0.034 C 
BRANCH  12  14
HETATM   14  O   UNL     1       4.389  14.582  94.078  1.00  0.00    -0.383 OA
HETATM   15  H   UNL     1       3.930  14.109  94.792  1.00  0.00     0.210 HD
ENDBRANCH  12  14
ENDBRANCH  11  12
BRANCH  11  16
HETATM   16  C   UNL     1       3.080  14.435  90.727  1.00  0.00     0.398 A 
HETATM   17  O   UNL     1       2.988  13.686  89.756  1.00  0.00    -0.136 OA
HETATM   18  N   UNL     1       4.086  14.713  89.529  1.00  0.00     0.142 N 
HETATM   19  HN  UNL     1       4.146  14.247  88.668  1.00  0.00     0.338 HD
BRANCH  18  20
HETATM   20  S   UNL     1       4.950  15.583  90.185  1.00  0.00     0.076 SA
HETATM   21  H   UNL     1       5.637  16.267  89.498  1.00  0.00     0.136 HD
ENDBRANCH  18  20
ENDBRANCH  11  16
ENDBRANCH   9  11
ENDBRANCH   1   7
BRANCH   4  22
HETATM   22  C   UNL     1       7.645   7.649  93.109  1.00  0.00    -0.059 C 
HETATM   23  C   UNL     1       8.475   6.780  93.100  1.00  0.00    -0.059 C 
BRANCH  23  24
HETATM   24  C   UNL     1       9.463   5.745  93.090  1.00  0.00     0.042 A 
HETATM   25  C   UNL     1      10.458   5.724  94.067  1.00  0.00     0.008 A 
HETATM   26  C   UNL     1      11.423   4.716  94.056  1.00  0.00    -0.002 A 
HETATM   27  C   UNL     1      11.390   3.729  93.071  1.00  0.00     0.011 A 
HETATM   28  C   UNL     1      10.393   3.752  92.095  1.00  0.00    -0.002 A 
HETATM   29  C   UNL     1       9.429   4.760  92.106  1.00  0.00     0.008 A 
BRANCH  27  30
HETATM   30  C   UNL     1      12.420   2.651  93.062  1.00  0.00     0.277 C 
BRANCH  30  31
HETATM   31  N   UNL     1      13.736   3.136  93.474  1.00  0.00     0.147 N 
HETATM   32  C   UNL     1      14.654   2.013  93.707  1.00  0.00     0.283 C 
HETATM   33  C   UNL     1      16.024   2.543  94.124  1.00  0.00     0.178 C 
HETATM   34  O   UNL     1      16.547   3.415  93.120  1.00  0.00    -0.350 OA
HETATM   35  C   UNL     1      15.675   4.526  92.910  1.00  0.00     0.178 C 
HETATM   36  C   UNL     1      14.298   4.044  92.464  1.00  0.00     0.283 C 
ENDBRANCH  30  31
ENDBRANCH  27  30
ENDBRANCH  23  24
ENDBRANCH   4  22
TORSDOF 10
ENDMDL
MODEL 5
REMARK VINA RESULT:      -5.5      1.665      2.239
REMARK  10 active torsions:
REMARK  status: ('A' for Active; 'I' for Inactive)
REMARK    1  A    between atoms: O_2  and  C_16 
REMARK    2  A    between atoms: N_5  and  C_9 
REMARK    3  A    between atoms: N_6  and  C_13 
REMARK       I    between atoms: N_6  and  C_22 
REMARK    4  A    between atoms: C_9  and  C_12 
REMARK    5  A    between atoms: C_13  and  C_16 
REMARK    6  A    between atoms: C_13  and  C_21 
REMARK    7  A    between atoms: C_19  and  C_24 
REMARK    8  A    between atoms: C_22  and  C_23 
REMARK    9  A    between atoms: C_27  and  C_30 
REMARK   10  A    between atoms: N_33  and  S_34 
ROOT
HETATM    1  C   UNL     1       5.756   9.262  89.306  1.00  0.00     0.056 A 
HETATM    2  C   UNL     1       5.636   7.927  88.981  1.00  0.00     0.005 A 
HETATM    3  C   UNL     1       6.834   9.754  90.010  1.00  0.00     0.005 A 
HETATM    4  C   UNL     1       7.741   7.517  90.093  1.00  0.00     0.042 A 
HETATM    5  C   UNL     1       6.640   7.044  89.379  1.00  0.00     0.008 A 
HETATM    6  C   UNL     1       7.839   8.872  90.409  1.00  0.00     0.008 A 
ENDROOT
BRANCH   1   7
HETATM    7  C   UNL     1       4.688  10.203  88.880  1.00  0.00     0.254 C 
HETATM    8  O   UNL     1       4.078   9.985  87.836  1.00  0.00    -0.268 OA
HETATM    9  N   UNL     1       4.441  11.269  89.734  1.00  0.00    -0.337 N 
HETATM   10  HN  UNL     1       4.968  11.371  90.593  1.00  0.00     0.164 HD
BRANCH   9  11
HETATM   11  C   UNL     1       3.421  12.252  89.471  1.00  0.00     0.172 C 
BRANCH  11  12
HETATM   12  C   UNL     1       2.778  12.797  90.753  1.00  0.00     0.136 C 
HETATM   13  C   UNL     1       2.323  14.245  90.608  1.00  0.00     0.034 C 
BRANCH  12  14
HETATM   14  O   UNL     1       1.654  11.991  91.103  1.00  0.00    -0.383 OA
HETATM   15  H   UNL     1       0.922  12.580  91.354  1.00  0.00     0.210 HD
ENDBRANCH  12  14
ENDBRANCH  11  12
BRANCH  11  16
HETATM   16  C   UNL     1       4.052  13.371  88.649  1.00  0.00     0.398 A 
HETATM   17  O   UNL     1       4.883  13.166  87.766  1.00  0.00    -0.136 OA
HETATM   18  N   UNL     1       5.311  14.339  88.632  1.00  0.00     0.142 N 
HETATM   19  HN  UNL     1       6.057  14.352  87.995  1.00  0.00     0.338 HD
BRANCH  18  20
HETATM   20  S   UNL     1       5.138  14.923  89.882  1.00  0.00     0.076 SA
HETATM   21  H   UNL     1       4.026  15.213  90.183  1.00  0.00     0.136 HD
ENDBRANCH  18  20
ENDBRANCH  11  16
ENDBRANCH   9  11
ENDBRANCH   1   7
BRANCH   4  22
HETATM   22  C   UNL     1       8.768   6.611  90.504  1.00  0.00    -0.059 C 
HETATM   23  C   UNL     1       9.632   5.850  90.849  1.00  0.00    -0.059 C 
BRANCH  23  24
HETATM   24  C   UNL     1      10.659   4.943  91.261  1.00  0.00     0.042 A 
HETATM   25  C   UNL     1      11.401   4.250  90.304  1.00  0.00     0.008 A 
HETATM   26  C   UNL     1      12.401   3.365  90.705  1.00  0.00    -0.002 A 
HETATM   27  C   UNL     1      12.661   3.174  92.063  1.00  0.00     0.011 A 
HETATM   28  C   UNL     1      11.918   3.869  93.018  1.00  0.00    -0.002 A 
HETATM   29  C   UNL     1      10.918   4.753  92.617  1.00  0.00     0.008 A 
BRANCH  27  30
HETATM   30  C   UNL     1      13.731   2.229  92.490  1.00  0.00     0.277 C 
BRANCH  30  31
HETATM   31  N   UNL     1      14.730   2.869  93.345  1.00  0.00     0.147 N 
HETATM   32  C   UNL     1      16.032   2.200  93.214  1.00  0.00     0.283 C 
HETATM   33  C   UNL     1      17.060   2.891  94.106  1.00  0.00     0.178 C 
HETATM   34  O   UNL     1      17.172   4.272  93.758  1.00  0.00    -0.350 OA
HETATM   35  C   UNL     1      15.917   4.937  93.913  1.00  0.00     0.178 C 
HETATM   36  C   UNL     1      14.862   4.295  93.017  1.00  0.00     0.283 C 
ENDBRANCH  30  31
ENDBRANCH  27  30
ENDBRANCH  23  24
ENDBRANCH   4  22
TORSDOF 10
ENDMDL
MODEL 6
REMARK VINA RESULT:      -5.4      3.570     12.399
REMARK  10 active torsions:
REMARK  status: ('A' for Active; 'I' for Inactive)
REMARK    1  A    between atoms: O_2  and  C_16 
REMARK    2  A    between atoms: N_5  and  C_9 
REMARK    3  A    between atoms: N_6  and  C_13 
REMARK       I    between atoms: N_6  and  C_22 
REMARK    4  A    between atoms: C_9  and  C_12 
REMARK    5  A    between atoms: C_13  and  C_16 
REMARK    6  A    between atoms: C_13  and  C_21 
REMARK    7  A    between atoms: C_19  and  C_24 
REMARK    8  A    between atoms: C_22  and  C_23 
REMARK    9  A    between atoms: C_27  and  C_30 
REMARK   10  A    between atoms: N_33  and  S_34 
ROOT
HETATM    1  C   UNL     1      10.212   5.675  89.927  1.00  0.00     0.056 A 
HETATM    2  C   UNL     1       9.794   6.196  91.134  1.00  0.00     0.005 A 
HETATM    3  C   UNL     1       9.736   6.142  88.720  1.00  0.00     0.005 A 
HETATM    4  C   UNL     1       8.362   7.720  89.926  1.00  0.00     0.042 A 
HETATM    5  C   UNL     1       8.858   7.230  91.135  1.00  0.00     0.008 A 
HETATM    6  C   UNL     1       8.801   7.176  88.719  1.00  0.00     0.008 A 
ENDROOT
BRANCH   1   7
HETATM    7  C   UNL     1      11.210   4.574  89.927  1.00  0.00     0.254 C 
HETATM    8  O   UNL     1      11.387   3.924  88.900  1.00  0.00    -0.268 OA
HETATM    9  N   UNL     1      11.901   4.380  91.116  1.00  0.00    -0.337 N 
HETATM   10  HN  UNL     1      11.719   4.973  91.917  1.00  0.00     0.164 HD
BRANCH   9  11
HETATM   11  C   UNL     1      12.917   3.369  91.266  1.00  0.00     0.172 C 
BRANCH  11  12
HETATM   12  C   UNL     1      14.336   3.923  91.084  1.00  0.00     0.136 C 
HETATM   13  C   UNL     1      15.228   2.988  90.275  1.00  0.00     0.034 C 
BRANCH  12  14
HETATM   14  O   UNL     1      14.274   5.188  90.427  1.00  0.00    -0.383 OA
HETATM   15  H   UNL     1      14.647   5.088  89.535  1.00  0.00     0.210 HD
ENDBRANCH  12  14
ENDBRANCH  11  12
BRANCH  11  16
HETATM   16  C   UNL     1      12.741   2.733  92.641  1.00  0.00     0.398 A 
HETATM   17  O   UNL     1      11.974   3.179  93.492  1.00  0.00    -0.136 OA
HETATM   18  N   UNL     1      13.306   2.809  94.124  1.00  0.00     0.142 N 
HETATM   19  HN  UNL     1      12.839   3.105  94.935  1.00  0.00     0.338 HD
BRANCH  18  20
HETATM   20  S   UNL     1      14.650   2.594  93.843  1.00  0.00     0.076 SA
HETATM   21  H   UNL     1      14.988   1.463  93.698  1.00  0.00     0.136 HD
ENDBRANCH  18  20
ENDBRANCH  11  16
ENDBRANCH   9  11
ENDBRANCH   1   7
BRANCH   4  22
HETATM   22  C   UNL     1       7.400   8.778  89.927  1.00  0.00    -0.059 C 
HETATM   23  C   UNL     1       6.592   9.668  89.926  1.00  0.00    -0.059 C 
BRANCH  23  24
HETATM   24  C   UNL     1       5.629  10.726  89.926  1.00  0.00     0.042 A 
HETATM   25  C   UNL     1       5.911  11.924  89.270  1.00  0.00     0.008 A 
HETATM   26  C   UNL     1       4.973  12.956  89.272  1.00  0.00    -0.002 A 
HETATM   27  C   UNL     1       3.753  12.789  89.928  1.00  0.00     0.011 A 
HETATM   28  C   UNL     1       3.473  11.590  90.584  1.00  0.00    -0.002 A 
HETATM   29  C   UNL     1       4.411  10.558  90.582  1.00  0.00     0.008 A 
BRANCH  27  30
HETATM   30  C   UNL     1       2.751  13.893  89.928  1.00  0.00     0.277 C 
BRANCH  30  31
HETATM   31  N   UNL     1       2.696  14.596  91.208  1.00  0.00     0.147 N 
HETATM   32  C   UNL     1       1.806  13.899  92.147  1.00  0.00     0.283 C 
HETATM   33  C   UNL     1       1.773  14.644  93.479  1.00  0.00     0.178 C 
HETATM   34  O   UNL     1       3.090  14.748  94.023  1.00  0.00    -0.350 OA
HETATM   35  C   UNL     1       3.954  15.452  93.130  1.00  0.00     0.178 C 
HETATM   36  C   UNL     1       4.038  14.727  91.791  1.00  0.00     0.283 C 
ENDBRANCH  30  31
ENDBRANCH  27  30
ENDBRANCH  23  24
ENDBRANCH   4  22
TORSDOF 10
ENDMDL
MODEL 7
REMARK VINA RESULT:      -5.2      3.605     12.500
REMARK  10 active torsions:
REMARK  status: ('A' for Active; 'I' for Inactive)
REMARK    1  A    between atoms: O_2  and  C_16 
REMARK    2  A    between atoms: N_5  and  C_9 
REMARK    3  A    between atoms: N_6  and  C_13 
REMARK       I    between atoms: N_6  and  C_22 
REMARK    4  A    between atoms: C_9  and  C_12 
REMARK    5  A    between atoms: C_13  and  C_16 
REMARK    6  A    between atoms: C_13  and  C_21 
REMARK    7  A    between atoms: C_19  and  C_24 
REMARK    8  A    between atoms: C_22  and  C_23 
REMARK    9  A    between atoms: C_27  and  C_30 
REMARK   10  A    between atoms: N_33  and  S_34 
ROOT
HETATM    1  C   UNL     1       9.652   5.273  91.801  1.00  0.00     0.056 A 
HETATM    2  C   UNL     1       8.628   5.474  92.703  1.00  0.00     0.005 A 
HETATM    3  C   UNL     1       9.836   6.086  90.703  1.00  0.00     0.005 A 
HETATM    4  C   UNL     1       7.912   7.372  91.392  1.00  0.00     0.042 A 
HETATM    5  C   UNL     1       7.747   6.536  92.496  1.00  0.00     0.008 A 
HETATM    6  C   UNL     1       8.956   7.148  90.495  1.00  0.00     0.008 A 
ENDROOT
BRANCH   1   7
HETATM    7  C   UNL     1      10.592   4.144  92.023  1.00  0.00     0.254 C 
HETATM    8  O   UNL     1      10.140   3.023  92.248  1.00  0.00    -0.268 OA
HETATM    9  N   UNL     1      11.943   4.449  91.931  1.00  0.00    -0.337 N 
HETATM   10  HN  UNL     1      12.241   5.393  91.717  1.00  0.00     0.164 HD
BRANCH   9  11
HETATM   11  C   UNL     1      12.975   3.458  92.097  1.00  0.00     0.172 C 
BRANCH  11  12
HETATM   12  C   UNL     1      13.940   3.402  90.906  1.00  0.00     0.136 C 
HETATM   13  C   UNL     1      13.214   3.296  89.570  1.00  0.00     0.034 C 
BRANCH  12  14
HETATM   14  O   UNL     1      14.758   4.572  90.898  1.00  0.00    -0.383 OA
HETATM   15  H   UNL     1      15.614   4.348  91.299  1.00  0.00     0.210 HD
ENDBRANCH  12  14
ENDBRANCH  11  12
BRANCH  11  16
HETATM   16  C   UNL     1      13.713   3.767  93.395  1.00  0.00     0.398 A 
HETATM   17  O   UNL     1      14.439   4.750  93.535  1.00  0.00    -0.136 OA
HETATM   18  N   UNL     1      15.103   3.515  94.122  1.00  0.00     0.142 N 
HETATM   19  HN  UNL     1      15.796   4.172  94.349  1.00  0.00     0.338 HD
BRANCH  18  20
HETATM   20  S   UNL     1      15.111   2.126  94.075  1.00  0.00     0.076 SA
HETATM   21  H   UNL     1      14.055   1.593  93.953  1.00  0.00     0.136 HD
ENDBRANCH  18  20
ENDBRANCH  11  16
ENDBRANCH   9  11
ENDBRANCH   1   7
BRANCH   4  22
HETATM   22  C   UNL     1       7.007   8.459  91.178  1.00  0.00    -0.059 C 
HETATM   23  C   UNL     1       6.247   9.373  90.999  1.00  0.00    -0.059 C 
BRANCH  23  24
HETATM   24  C   UNL     1       5.342  10.460  90.784  1.00  0.00     0.042 A 
HETATM   25  C   UNL     1       4.047  10.401  91.301  1.00  0.00     0.008 A 
HETATM   26  C   UNL     1       3.164  11.459  91.090  1.00  0.00    -0.002 A 
HETATM   27  C   UNL     1       3.577  12.578  90.365  1.00  0.00     0.011 A 
HETATM   28  C   UNL     1       4.872  12.636  89.849  1.00  0.00    -0.002 A 
HETATM   29  C   UNL     1       5.754  11.576  90.060  1.00  0.00     0.008 A 
BRANCH  27  30
HETATM   30  C   UNL     1       2.633  13.710  90.142  1.00  0.00     0.277 C 
BRANCH  30  31
HETATM   31  N   UNL     1       2.509  14.571  91.317  1.00  0.00     0.147 N 
HETATM   32  C   UNL     1       1.520  14.028  92.258  1.00  0.00     0.283 C 
HETATM   33  C   UNL     1       1.416  14.937  93.480  1.00  0.00     0.178 C 
HETATM   34  O   UNL     1       2.690  15.066  94.114  1.00  0.00    -0.350 OA
HETATM   35  C   UNL     1       3.650  15.622  93.215  1.00  0.00     0.178 C 
HETATM   36  C   UNL     1       3.807  14.731  91.987  1.00  0.00     0.283 C 
ENDBRANCH  30  31
ENDBRANCH  27  30
ENDBRANCH  23  24
ENDBRANCH   4  22
TORSDOF 10
ENDMDL
MODEL 8
REMARK VINA RESULT:      -5.0      3.713     12.590
REMARK  10 active torsions:
REMARK  status: ('A' for Active; 'I' for Inactive)
REMARK    1  A    between atoms: O_2  and  C_16 
REMARK    2  A    between atoms: N_5  and  C_9 
REMARK    3  A    between atoms: N_6  and  C_13 
REMARK       I    between atoms: N_6  and  C_22 
REMARK    4  A    between atoms: C_9  and  C_12 
REMARK    5  A    between atoms: C_13  and  C_16 
REMARK    6  A    between atoms: C_13  and  C_21 
REMARK    7  A    between atoms: C_19  and  C_24 
REMARK    8  A    between atoms: C_22  and  C_23 
REMARK    9  A    between atoms: C_27  and  C_30 
REMARK   10  A    between atoms: N_33  and  S_34 
ROOT
HETATM    1  C   UNL     1      10.420   4.699  92.737  1.00  0.00     0.056 A 
HETATM    2  C   UNL     1      10.290   5.621  93.755  1.00  0.00     0.005 A 
HETATM    3  C   UNL     1       9.592   4.699  91.634  1.00  0.00     0.005 A 
HETATM    4  C   UNL     1       8.435   6.605  92.562  1.00  0.00     0.042 A 
HETATM    5  C   UNL     1       9.285   6.585  93.667  1.00  0.00     0.008 A 
HETATM    6  C   UNL     1       8.588   5.663  91.545  1.00  0.00     0.008 A 
ENDROOT
BRANCH   1   7
HETATM    7  C   UNL     1      11.492   3.674  92.830  1.00  0.00     0.254 C 
HETATM    8  O   UNL     1      11.189   2.484  92.781  1.00  0.00    -0.268 OA
HETATM    9  N   UNL     1      12.788   4.157  92.943  1.00  0.00    -0.337 N 
HETATM   10  HN  UNL     1      12.964   5.155  92.952  1.00  0.00     0.164 HD
BRANCH   9  11
HETATM   11  C   UNL     1      13.935   3.289  93.019  1.00  0.00     0.172 C 
BRANCH  11  12
HETATM   12  C   UNL     1      14.404   2.804  91.641  1.00  0.00     0.136 C 
HETATM   13  C   UNL     1      14.173   3.841  90.547  1.00  0.00     0.034 C 
BRANCH  12  14
HETATM   14  O   UNL     1      15.795   2.489  91.695  1.00  0.00    -0.383 OA
HETATM   15  H   UNL     1      15.887   1.552  91.936  1.00  0.00     0.210 HD
ENDBRANCH  12  14
ENDBRANCH  11  12
BRANCH  11  16
HETATM   16  C   UNL     1      15.043   4.043  93.748  1.00  0.00     0.398 A 
HETATM   17  O   UNL     1      15.543   5.080  93.316  1.00  0.00    -0.136 OA
HETATM   18  N   UNL     1      16.626   4.146  93.833  1.00  0.00     0.142 N 
HETATM   19  HN  UNL     1      17.198   4.898  93.569  1.00  0.00     0.338 HD
BRANCH  18  20
HETATM   20  S   UNL     1      16.902   2.815  94.124  1.00  0.00     0.076 SA
HETATM   21  H   UNL     1      17.153   2.111  93.201  1.00  0.00     0.136 HD
ENDBRANCH  18  20
ENDBRANCH  11  16
ENDBRANCH   9  11
ENDBRANCH   1   7
BRANCH   4  22
HETATM   22  C   UNL     1       7.403   7.591  92.473  1.00  0.00    -0.059 C 
HETATM   23  C   UNL     1       6.537   8.421  92.398  1.00  0.00    -0.059 C 
BRANCH  23  24
HETATM   24  C   UNL     1       5.505   9.408  92.308  1.00  0.00     0.042 A 
HETATM   25  C   UNL     1       4.275   9.080  91.739  1.00  0.00     0.008 A 
HETATM   26  C   UNL     1       3.269  10.042  91.650  1.00  0.00    -0.002 A 
HETATM   27  C   UNL     1       3.494  11.332  92.131  1.00  0.00     0.011 A 
HETATM   28  C   UNL     1       4.725  11.659  92.701  1.00  0.00    -0.002 A 
HETATM   29  C   UNL     1       5.730  10.696  92.789  1.00  0.00     0.008 A 
BRANCH  27  30
HETATM   30  C   UNL     1       2.418  12.360  92.037  1.00  0.00     0.277 C 
BRANCH  30  31
HETATM   31  N   UNL     1       2.912  13.639  91.529  1.00  0.00     0.147 N 
HETATM   32  C   UNL     1       3.796  14.282  92.511  1.00  0.00     0.283 C 
HETATM   33  C   UNL     1       4.308  15.608  91.954  1.00  0.00     0.178 C 
HETATM   34  O   UNL     1       5.000  15.397  90.722  1.00  0.00    -0.350 OA
HETATM   35  C   UNL     1       4.138  14.800  89.753  1.00  0.00     0.178 C 
HETATM   36  C   UNL     1       3.622  13.456  90.256  1.00  0.00     0.283 C 
ENDBRANCH  30  31
ENDBRANCH  27  30
ENDBRANCH  23  24
ENDBRANCH   4  22
TORSDOF 10
ENDMDL
MODEL 9
REMARK VINA RESULT:      -4.8      2.669      3.495
REMARK  10 active torsions:
REMARK  status: ('A' for Active; 'I' for Inactive)
REMARK    1  A    between atoms: O_2  and  C_16 
REMARK    2  A    between atoms: N_5  and  C_9 
REMARK    3  A    between atoms: N_6  and  C_13 
REMARK       I    between atoms: N_6  and  C_22 
REMARK    4  A    between atoms: C_9  and  C_12 
REMARK    5  A    between atoms: C_13  and  C_16 
REMARK    6  A    between atoms: C_13  and  C_21 
REMARK    7  A    between atoms: C_19  and  C_24 
REMARK    8  A    between atoms: C_22  and  C_23 
REMARK    9  A    between atoms: C_27  and  C_30 
REMARK   10  A    between atoms: N_33  and  S_34 
ROOT
HETATM    1  C   UNL     1       5.660   9.147  90.961  1.00  0.00     0.056 A 
HETATM    2  C   UNL     1       5.346   7.910  91.484  1.00  0.00     0.005 A 
HETATM    3  C   UNL     1       6.961   9.543  90.736  1.00  0.00     0.005 A 
HETATM    4  C   UNL     1       7.707   7.406  91.580  1.00  0.00     0.042 A 
HETATM    5  C   UNL     1       6.381   7.029  91.798  1.00  0.00     0.008 A 
HETATM    6  C   UNL     1       7.997   8.662  91.049  1.00  0.00     0.008 A 
ENDROOT
BRANCH   1   7
HETATM    7  C   UNL     1       4.557  10.084  90.625  1.00  0.00     0.254 C 
HETATM    8  O   UNL     1       3.609  10.196  91.399  1.00  0.00    -0.268 OA
HETATM    9  N   UNL     1       4.702  10.796  89.442  1.00  0.00    -0.337 N 
HETATM   10  HN  UNL     1       5.526  10.669  88.866  1.00  0.00     0.164 HD
BRANCH   9  11
HETATM   11  C   UNL     1       3.730  11.759  88.993  1.00  0.00     0.172 C 
BRANCH  11  12
HETATM   12  C   UNL     1       4.369  13.077  88.535  1.00  0.00     0.136 C 
HETATM   13  C   UNL     1       5.649  13.401  89.298  1.00  0.00     0.034 C 
BRANCH  12  14
HETATM   14  O   UNL     1       4.665  13.005  87.141  1.00  0.00    -0.383 OA
HETATM   15  H   UNL     1       4.732  13.912  86.796  1.00  0.00     0.210 HD
ENDBRANCH  12  14
ENDBRANCH  11  12
BRANCH  11  16
HETATM   16  C   UNL     1       2.922  11.117  87.871  1.00  0.00     0.398 A 
HETATM   17  O   UNL     1       1.785  11.479  87.572  1.00  0.00    -0.136 OA
HETATM   18  N   UNL     1       1.863   9.961  87.609  1.00  0.00     0.142 N 
HETATM   19  HN  UNL     1       0.925  10.050  87.335  1.00  0.00     0.338 HD
BRANCH  18  20
HETATM   20  S   UNL     1       2.590   8.896  88.128  1.00  0.00     0.076 SA
HETATM   21  H   UNL     1       2.512   7.865  87.542  1.00  0.00     0.136 HD
ENDBRANCH  18  20
ENDBRANCH  11  16
ENDBRANCH   9  11
ENDBRANCH   1   7
BRANCH   4  22
HETATM   22  C   UNL     1       8.768   6.504  91.904  1.00  0.00    -0.059 C 
HETATM   23  C   UNL     1       9.660   5.746  92.177  1.00  0.00    -0.059 C 
BRANCH  23  24
HETATM   24  C   UNL     1      10.722   4.843  92.502  1.00  0.00     0.042 A 
HETATM   25  C   UNL     1      11.398   4.972  93.715  1.00  0.00     0.008 A 
HETATM   26  C   UNL     1      12.434   4.093  94.031  1.00  0.00    -0.002 A 
HETATM   27  C   UNL     1      12.791   3.085  93.135  1.00  0.00     0.011 A 
HETATM   28  C   UNL     1      12.113   2.957  91.922  1.00  0.00    -0.002 A 
HETATM   29  C   UNL     1      11.078   3.837  91.607  1.00  0.00     0.008 A 
BRANCH  27  30
HETATM   30  C   UNL     1      13.897   2.145  93.475  1.00  0.00     0.277 C 
BRANCH  30  31
HETATM   31  N   UNL     1      15.075   2.836  93.996  1.00  0.00     0.147 N 
HETATM   32  C   UNL     1      16.307   2.154  93.577  1.00  0.00     0.283 C 
HETATM   33  C   UNL     1      17.522   2.899  94.124  1.00  0.00     0.178 C 
HETATM   34  O   UNL     1      17.522   4.253  93.668  1.00  0.00    -0.350 OA
HETATM   35  C   UNL     1      16.342   4.932  94.097  1.00  0.00     0.178 C 
HETATM   36  C   UNL     1      15.099   4.236  93.552  1.00  0.00     0.283 C 
ENDBRANCH  30  31
ENDBRANCH  27  30
ENDBRANCH  23  24
ENDBRANCH   4  22
TORSDOF 10
ENDMDL
