MODEL 1
REMARK VINA RESULT:      -6.9      0.000      0.000
REMARK  10 active torsions:
REMARK  status: ('A' for Active; 'I' for Inactive)
REMARK    1  A    between atoms: O_2  and  C_16 
REMARK    2  A    between atoms: N_5  and  C_9 
REMARK    3  A    between atoms: N_6  and  C_13 
REMARK       I    between atoms: N_6  and  C_22 
REMARK    4  A    between atoms: C_9  and  C_12 
REMARK    5  A    between atoms: C_13  and  C_16 
REMARK    6  A    between atoms: C_13  and  C_21 
REMARK    7  A    between atoms: C_19  and  C_24 
REMARK    8  A    between atoms: C_22  and  C_23 
REMARK    9  A    between atoms: C_27  and  C_30 
REMARK   10  A    between atoms: N_33  and  S_34 
ROOT
HETATM    1  C   UNL     1       5.681  11.091  89.659  1.00  0.00     0.056 A 
HETATM    2  C   UNL     1       5.154   9.911  90.138  1.00  0.00     0.005 A 
HETATM    3  C   UNL     1       7.030  11.254  89.425  1.00  0.00     0.005 A 
HETATM    4  C   UNL     1       7.384   8.984  90.171  1.00  0.00     0.042 A 
HETATM    5  C   UNL     1       6.014   8.844  90.398  1.00  0.00     0.008 A 
HETATM    6  C   UNL     1       7.892  10.188  89.685  1.00  0.00     0.008 A 
ENDROOT
BRANCH   1   7
HETATM    7  C   UNL     1       4.763  12.226  89.380  1.00  0.00     0.254 C 
HETATM    8  O   UNL     1       4.474  12.493  88.216  1.00  0.00    -0.268 OA
HETATM    9  N   UNL     1       4.273  12.898  90.492  1.00  0.00    -0.337 N 
HETATM   10  HN  UNL     1       4.536  12.606  91.425  1.00  0.00     0.164 HD
BRANCH   9  11
HETATM   11  C   UNL     1       3.355  14.004  90.387  1.00  0.00     0.172 C 
BRANCH  11  12
HETATM   12  C   UNL     1       1.992  13.707  91.025  1.00  0.00     0.136 C 
HETATM   13  C   UNL     1       2.009  12.440  91.873  1.00  0.00     0.034 C 
BRANCH  12  14
HETATM   14  O   UNL     1       1.598  14.808  91.844  1.00  0.00    -0.383 OA
HETATM   15  H   UNL     1       1.929  14.651  92.745  1.00  0.00     0.210 HD
ENDBRANCH  12  14
ENDBRANCH  11  12
BRANCH  11  16
HETATM   16  C   UNL     1       4.015  15.220  91.029  1.00  0.00     0.398 A 
HETATM   17  O   UNL     1       5.147  15.600  90.736  1.00  0.00    -0.136 OA
HETATM   18  N   UNL     1       4.955  15.624  92.244  1.00  0.00     0.142 N 
HETATM   19  HN  UNL     1       5.871  15.975  92.210  1.00  0.00     0.338 HD
BRANCH  18  20
HETATM   20  S   UNL     1       4.194  15.092  93.278  1.00  0.00     0.076 SA
HETATM   21  H   UNL     1       4.685  15.108  94.361  1.00  0.00     0.136 HD
ENDBRANCH  18  20
ENDBRANCH  11  16
ENDBRANCH   9  11
ENDBRANCH   1   7
BRANCH   4  22
HETATM   22  C   UNL     1       8.267   7.892  90.439  1.00  0.00    -0.059 C 
HETATM   23  C   UNL     1       9.009   6.973  90.665  1.00  0.00    -0.059 C 
BRANCH  23  24
HETATM   24  C   UNL     1       9.893   5.880  90.933  1.00  0.00     0.042 A 
HETATM   25  C   UNL     1      10.057   5.423  92.240  1.00  0.00     0.008 A 
HETATM   26  C   UNL     1      10.920   4.359  92.501  1.00  0.00    -0.002 A 
HETATM   27  C   UNL     1      11.616   3.751  91.455  1.00  0.00     0.011 A 
HETATM   28  C   UNL     1      11.450   4.210  90.148  1.00  0.00    -0.002 A 
HETATM   29  C   UNL     1      10.587   5.275  89.887  1.00  0.00     0.008 A 
BRANCH  27  30
HETATM   30  C   UNL     1      12.537   2.613  91.736  1.00  0.00     0.277 C 
BRANCH  30  31
HETATM   31  N   UNL     1      13.534   2.940  92.753  1.00  0.00     0.147 N 
HETATM   32  C   UNL     1      14.373   1.772  93.055  1.00  0.00     0.283 C 
HETATM   33  C   UNL     1      15.412   2.141  94.110  1.00  0.00     0.178 C 
HETATM   34  O   UNL     1      16.218   3.230  93.656  1.00  0.00    -0.350 OA
HETATM   35  C   UNL     1      15.413   4.379  93.391  1.00  0.00     0.178 C 
HETATM   36  C   UNL     1      14.374   4.065  92.319  1.00  0.00     0.283 C 
ENDBRANCH  30  31
ENDBRANCH  27  30
ENDBRANCH  23  24
ENDBRANCH   4  22
TORSDOF 10
ENDMDL
