MODEL 1
REMARK VINA RESULT:      -7.5      0.000      0.000
REMARK  9 active torsions:
REMARK  status: ('A' for Active; 'I' for Inactive)
REMARK    1  A    between atoms: N_3  and  C_6 
REMARK    2  A    between atoms: C_6  and  C_9 
REMARK    3  A    between atoms: C_14  and  C_17 
REMARK       I    between atoms: N_26  and  C_15 
REMARK    4  A    between atoms: C_15  and  C_16 
REMARK    5  A    between atoms: C_20  and  C_23 
REMARK    6  A    between atoms: OG1_24  and  CB_28 
REMARK    7  A    between atoms: N_26  and  CA_27 
REMARK    8  A    between atoms: CA_27  and  CB_28 
REMARK    9  A    between atoms: CA_27  and  C_30 
ROOT
HETATM    1  O   UNK A   0       1.946   8.070  87.822  1.00  0.00    -0.388 OA
HETATM    2  N   UNK A   0       4.741   7.555  87.672  1.00  0.00     0.096 N 
HETATM    3  C   UNK A   0       4.217   8.924  87.771  1.00  0.00     0.299 C 
HETATM    4  C   UNK A   0       3.762   6.689  87.000  1.00  0.00     0.299 C 
HETATM    5  C   UNK A   0       2.877   8.913  88.503  1.00  0.00     0.198 C 
HETATM    6  C   UNK A   0       2.434   6.730  87.748  1.00  0.00     0.198 C 
ENDROOT
BRANCH   2   7
HETATM    7  C   UNK A   0       6.020   7.541  86.964  1.00  0.00     0.311 C 
BRANCH   7   8
HETATM    8  C   UNK A   0       7.113   6.938  87.779  1.00  0.00    -0.030 A 
HETATM    9  C   UNK A   0       6.872   6.566  89.102  1.00  0.00     0.010 A 
HETATM   10  C   UNK A   0       7.894   6.004  89.866  1.00  0.00     0.021 A 
HETATM   11  C   UNK A   0       9.157   5.813  89.307  1.00  0.00     0.018 A 
HETATM   12  C   UNK A   0       9.400   6.185  87.986  1.00  0.00     0.021 A 
HETATM   13  C   UNK A   0       8.378   6.747  87.222  1.00  0.00     0.010 A 
BRANCH  11  14
HETATM   14  C   UNK A   0      10.206   5.235  90.090  1.00  0.00    -0.061 C 
HETATM   15  C   UNK A   0      11.087   4.749  90.748  1.00  0.00    -0.061 C 
BRANCH  15  16
HETATM   16  C   UNK A   0      12.135   4.172  91.531  1.00  0.00     0.018 A 
HETATM   17  C   UNK A   0      11.898   3.820  92.860  1.00  0.00     0.022 A 
HETATM   18  C   UNK A   0      12.920   3.254  93.623  1.00  0.00     0.018 A 
HETATM   19  C   UNK A   0      14.154   3.054  93.040  1.00  0.00     0.032 A 
HETATM   20  C   UNK A   0      14.413   3.394  91.729  1.00  0.00     0.018 A 
HETATM   21  C   UNK A   0      13.392   3.960  90.965  1.00  0.00     0.022 A 
BRANCH  19  22
HETATM   22  C   UNK A   0      15.243   2.453  93.854  1.00  0.00     0.252 C 
HETATM   23  O   UNK A   0      16.394   2.857  93.707  1.00  0.00    -0.268 OA
ENDBRANCH  19  22
ENDBRANCH  15  16
ENDBRANCH  11  14
ENDBRANCH   7   8
ENDBRANCH   2   7
TORSDOF 9
ENDMDL
