MODEL 1
REMARK VINA RESULT:      -7.1      0.000      0.000
REMARK  9 active torsions:
REMARK  status: ('A' for Active; 'I' for Inactive)
REMARK    1  A    between atoms: O_2  and  C_17 
REMARK    2  A    between atoms: N_5  and  C_10 
REMARK    3  A    between atoms: N_6  and  C_14 
REMARK       I    between atoms: N_6  and  C_23 
REMARK       I    between atoms: N_7  and  C_22 
REMARK    4  A    between atoms: C_10  and  C_13 
REMARK    5  A    between atoms: C_14  and  C_17 
REMARK    6  A    between atoms: C_14  and  C_22 
REMARK    7  A    between atoms: C_20  and  C_25 
REMARK    8  A    between atoms: C_23  and  C_24 
REMARK    9  A    between atoms: C_28  and  C_31 
ROOT
HETATM    1  O   UNL     1      16.175   3.982  94.111  1.00  0.00    -0.388 OA
HETATM    2  N   UNL     1      14.366   2.444  92.540  1.00  0.00     0.096 N 
HETATM    3  C   UNL     1      14.298   3.911  92.573  1.00  0.00     0.299 C 
HETATM    4  C   UNL     1      14.906   1.936  93.810  1.00  0.00     0.299 C 
HETATM    5  C   UNL     1      15.681   4.486  92.869  1.00  0.00     0.198 C 
HETATM    6  C   UNL     1      16.273   2.558  94.076  1.00  0.00     0.198 C 
ENDROOT
BRANCH   2   7
HETATM    7  C   UNL     1      13.049   1.871  92.269  1.00  0.00     0.311 C 
BRANCH   7   8
HETATM    8  C   UNL     1      12.047   2.906  91.887  1.00  0.00    -0.030 A 
HETATM    9  C   UNL     1      11.411   3.659  92.875  1.00  0.00     0.010 A 
HETATM   10  C   UNL     1      10.472   4.626  92.518  1.00  0.00     0.021 A 
HETATM   11  C   UNL     1      10.171   4.842  91.174  1.00  0.00     0.018 A 
HETATM   12  C   UNL     1      10.805   4.091  90.187  1.00  0.00     0.021 A 
HETATM   13  C   UNL     1      11.744   3.123  90.543  1.00  0.00     0.010 A 
BRANCH  11  14
HETATM   14  C   UNL     1       9.209   5.836  90.808  1.00  0.00    -0.061 C 
HETATM   15  C   UNL     1       8.401   6.671  90.501  1.00  0.00    -0.061 C 
BRANCH  15  16
HETATM   16  C   UNL     1       7.439   7.664  90.134  1.00  0.00     0.018 A 
HETATM   17  C   UNL     1       6.939   7.702  88.832  1.00  0.00     0.022 A 
HETATM   18  C   UNL     1       5.999   8.669  88.476  1.00  0.00     0.018 A 
HETATM   19  C   UNL     1       5.580   9.575  89.428  1.00  0.00     0.032 A 
HETATM   20  C   UNL     1       6.060   9.558  90.721  1.00  0.00     0.018 A 
HETATM   21  C   UNL     1       7.000   8.591  91.079  1.00  0.00     0.022 A 
BRANCH  19  22
HETATM   22  C   UNL     1       4.581  10.606  89.048  1.00  0.00     0.252 C 
HETATM   23  O   UNL     1       3.624  10.284  88.347  1.00  0.00    -0.268 OA
HETATM   24  N   UNL     1       4.802  11.881  89.548  1.00  0.00    -0.342 N 
HETATM   25  H   UNL     1       5.601  12.068  90.142  1.00  0.00     0.163 HD
BRANCH  24  26
HETATM   26  C   UNL     1       3.909  12.982  89.288  1.00  0.00     0.199 C 
BRANCH  26  27
HETATM   27  C   UNL     1       3.366  13.622  90.572  1.00  0.00     0.145 C 
HETATM   28  C   UNL     1       2.583  12.634  91.430  1.00  0.00     0.042 C 
BRANCH  27  29
HETATM   29  O   UNL     1       4.449  14.146  91.340  1.00  0.00    -0.393 OA
HETATM   30  H   UNL     1       4.325  15.106  91.426  1.00  0.00     0.210 HD
ENDBRANCH  27  29
ENDBRANCH  26  27
BRANCH  26  31
HETATM   31  C   UNL     1       4.661  14.000  88.437  1.00  0.00     0.220 C 
HETATM   32  O   UNL     1       5.037  15.088  88.870  1.00  0.00    -0.278 OA
HETATM   33  N   UNL     1       4.826  13.573  87.142  1.00  0.00    -0.271 NA
HETATM   34  H   UNL     1       4.453  12.725  86.730  1.00  0.00     0.127 HD
HETATM   35  H   UNL     1       4.189  14.040  85.982  1.00  0.00     0.127 HD
ENDBRANCH  26  31
ENDBRANCH  24  26
ENDBRANCH  19  22
ENDBRANCH  15  16
ENDBRANCH  11  14
ENDBRANCH   7   8
ENDBRANCH   2   7
TORSDOF 9
ENDMDL
