MODEL 1
REMARK VINA RESULT:      -6.9      0.000      0.000
REMARK  10 active torsions:
REMARK  status: ('A' for Active; 'I' for Inactive)
REMARK    1  A    between atoms: O_2  and  C_16 
REMARK    2  A    between atoms: N_5  and  C_9 
REMARK    3  A    between atoms: N_6  and  C_13 
REMARK       I    between atoms: N_6  and  C_22 
REMARK    4  A    between atoms: C_9  and  C_12 
REMARK    5  A    between atoms: C_13  and  C_16 
REMARK    6  A    between atoms: C_13  and  C_21 
REMARK    7  A    between atoms: C_19  and  C_24 
REMARK    8  A    between atoms: C_22  and  C_23 
REMARK    9  A    between atoms: C_27  and  C_30 
REMARK   10  A    between atoms: N_33  and  S_34 
ROOT
HETATM    1  C   UNL     1       5.822  11.207  89.642  1.00  0.00     0.056 A 
HETATM    2  C   UNL     1       5.274  10.032  90.114  1.00  0.00     0.005 A 
HETATM    3  C   UNL     1       7.176  11.349  89.419  1.00  0.00     0.005 A 
HETATM    4  C   UNL     1       7.489   9.070  90.158  1.00  0.00     0.042 A 
HETATM    5  C   UNL     1       6.116   8.952  90.375  1.00  0.00     0.008 A 
HETATM    6  C   UNL     1       8.019  10.269  89.680  1.00  0.00     0.008 A 
ENDROOT
BRANCH   1   7
HETATM    7  C   UNL     1       4.925  12.357  89.362  1.00  0.00     0.254 C 
HETATM    8  O   UNL     1       4.834  12.781  88.213  1.00  0.00    -0.268 OA
HETATM    9  N   UNL     1       4.222  12.859  90.449  1.00  0.00    -0.337 N 
HETATM   10  HN  UNL     1       4.329  12.441  91.366  1.00  0.00     0.164 HD
BRANCH   9  11
HETATM   11  C   UNL     1       3.295  13.956  90.334  1.00  0.00     0.172 C 
BRANCH  11  12
HETATM   12  C   UNL     1       1.942  13.661  90.994  1.00  0.00     0.136 C 
HETATM   13  C   UNL     1       2.012  12.495  91.974  1.00  0.00     0.034 C 
BRANCH  12  14
HETATM   14  O   UNL     1       1.487  14.823  91.688  1.00  0.00    -0.383 OA
HETATM   15  H   UNL     1       1.032  15.399  91.051  1.00  0.00     0.210 HD
ENDBRANCH  12  14
ENDBRANCH  11  12
BRANCH  11  16
HETATM   16  C   UNL     1       3.954  15.188  90.944  1.00  0.00     0.398 A 
HETATM   17  O   UNL     1       5.063  15.593  90.603  1.00  0.00    -0.136 OA
HETATM   18  N   UNL     1       4.935  15.618  92.117  1.00  0.00     0.142 N 
HETATM   19  HN  UNL     1       5.840  15.989  92.044  1.00  0.00     0.338 HD
BRANCH  18  20
HETATM   20  S   UNL     1       4.230  15.073  93.184  1.00  0.00     0.076 SA
HETATM   21  H   UNL     1       3.120  15.465  93.343  1.00  0.00     0.136 HD
ENDBRANCH  18  20
ENDBRANCH  11  16
ENDBRANCH   9  11
ENDBRANCH   1   7
BRANCH   4  22
HETATM   22  C   UNL     1       8.352   7.964  90.428  1.00  0.00    -0.059 C 
HETATM   23  C   UNL     1       9.079   7.033  90.656  1.00  0.00    -0.059 C 
BRANCH  23  24
HETATM   24  C   UNL     1       9.943   5.925  90.928  1.00  0.00     0.042 A 
HETATM   25  C   UNL     1      10.625   5.302  89.883  1.00  0.00     0.008 A 
HETATM   26  C   UNL     1      11.465   4.221  90.147  1.00  0.00    -0.002 A 
HETATM   27  C   UNL     1      11.625   3.765  91.456  1.00  0.00     0.011 A 
HETATM   28  C   UNL     1      10.942   4.390  92.500  1.00  0.00    -0.002 A 
HETATM   29  C   UNL     1      10.101   5.471  92.235  1.00  0.00     0.008 A 
BRANCH  27  30
HETATM   30  C   UNL     1      12.525   2.611  91.738  1.00  0.00     0.277 C 
BRANCH  30  31
HETATM   31  N   UNL     1      13.510   2.912  92.775  1.00  0.00     0.147 N 
HETATM   32  C   UNL     1      14.356   1.742  93.046  1.00  0.00     0.283 C 
HETATM   33  C   UNL     1      15.382   2.083  94.124  1.00  0.00     0.178 C 
HETATM   34  O   UNL     1      16.182   3.193  93.714  1.00  0.00    -0.350 OA
HETATM   35  C   UNL     1      15.370   4.344  93.479  1.00  0.00     0.178 C 
HETATM   36  C   UNL     1      14.344   4.058  92.387  1.00  0.00     0.283 C 
ENDBRANCH  30  31
ENDBRANCH  27  30
ENDBRANCH  23  24
ENDBRANCH   4  22
TORSDOF 10
ENDMDL
