MODEL 1
REMARK VINA RESULT:      -7.5      0.000      0.000
REMARK  9 active torsions:
REMARK  status: ('A' for Active; 'I' for Inactive)
REMARK    1  A    between atoms: N_3  and  C_6 
REMARK    2  A    between atoms: C_6  and  C_9 
REMARK    3  A    between atoms: C_14  and  C_17 
REMARK       I    between atoms: N_26  and  C_15 
REMARK    4  A    between atoms: C_15  and  C_16 
REMARK    5  A    between atoms: C_20  and  C_23 
REMARK    6  A    between atoms: OG1_24  and  CB_28 
REMARK    7  A    between atoms: N_26  and  CA_27 
REMARK    8  A    between atoms: CA_27  and  CB_28 
REMARK    9  A    between atoms: CA_27  and  C_30 
ROOT
HETATM    1  O   UNK A   0       1.853   8.079  87.861  1.00  0.00    -0.388 OA
HETATM    2  N   UNK A   0       4.645   7.555  87.688  1.00  0.00     0.096 N 
HETATM    3  C   UNK A   0       4.127   8.924  87.814  1.00  0.00     0.299 C 
HETATM    4  C   UNK A   0       3.660   6.705  87.005  1.00  0.00     0.299 C 
HETATM    5  C   UNK A   0       2.791   8.906  88.553  1.00  0.00     0.198 C 
HETATM    6  C   UNK A   0       2.335   6.739  87.761  1.00  0.00     0.198 C 
ENDROOT
BRANCH   2   7
HETATM    7  C   UNK A   0       5.921   7.548  86.974  1.00  0.00     0.311 C 
BRANCH   7   8
HETATM    8  C   UNK A   0       7.021   6.949  87.782  1.00  0.00    -0.030 A 
HETATM    9  C   UNK A   0       8.281   6.762  87.213  1.00  0.00     0.010 A 
HETATM   10  C   UNK A   0       9.311   6.200  87.967  1.00  0.00     0.021 A 
HETATM   11  C   UNK A   0       9.080   5.827  89.291  1.00  0.00     0.018 A 
HETATM   12  C   UNK A   0       7.822   6.015  89.861  1.00  0.00     0.021 A 
HETATM   13  C   UNK A   0       6.792   6.576  89.107  1.00  0.00     0.010 A 
BRANCH  11  14
HETATM   14  C   UNK A   0      10.137   5.253  90.066  1.00  0.00    -0.061 C 
HETATM   15  C   UNK A   0      11.026   4.770  90.717  1.00  0.00    -0.061 C 
BRANCH  15  16
HETATM   16  C   UNK A   0      12.082   4.197  91.491  1.00  0.00     0.018 A 
HETATM   17  C   UNK A   0      13.340   4.007  90.919  1.00  0.00     0.022 A 
HETATM   18  C   UNK A   0      14.371   3.450  91.676  1.00  0.00     0.018 A 
HETATM   19  C   UNK A   0      14.122   3.097  92.986  1.00  0.00     0.032 A 
HETATM   20  C   UNK A   0      12.887   3.275  93.574  1.00  0.00     0.018 A 
HETATM   21  C   UNK A   0      11.855   3.832  92.818  1.00  0.00     0.022 A 
BRANCH  19  22
HETATM   22  C   UNK A   0      15.220   2.502  93.791  1.00  0.00     0.252 C 
HETATM   23  O   UNK A   0      16.375   2.869  93.593  1.00  0.00    -0.268 OA
ENDBRANCH  19  22
ENDBRANCH  15  16
ENDBRANCH  11  14
ENDBRANCH   7   8
ENDBRANCH   2   7
TORSDOF 9
ENDMDL
