MODEL 1
REMARK VINA RESULT:      -7.6      0.000      0.000
REMARK  9 active torsions:
REMARK  status: ('A' for Active; 'I' for Inactive)
REMARK    1  A    between atoms: N_3  and  C_6 
REMARK    2  A    between atoms: C_6  and  C_9 
REMARK    3  A    between atoms: C_14  and  C_17 
REMARK       I    between atoms: N_26  and  C_15 
REMARK    4  A    between atoms: C_15  and  C_16 
REMARK    5  A    between atoms: C_20  and  C_23 
REMARK    6  A    between atoms: OG1_24  and  CB_28 
REMARK    7  A    between atoms: N_26  and  CA_27 
REMARK    8  A    between atoms: CA_27  and  CB_28 
REMARK    9  A    between atoms: CA_27  and  C_30 
ROOT
HETATM    1  O   UNK A   0       1.890   8.165  87.882  1.00  0.00    -0.388 OA
HETATM    2  N   UNK A   0       4.665   7.565  87.682  1.00  0.00     0.096 N 
HETATM    3  C   UNK A   0       4.188   8.946  87.842  1.00  0.00     0.299 C 
HETATM    4  C   UNK A   0       3.652   6.760  86.986  1.00  0.00     0.299 C 
HETATM    5  C   UNK A   0       2.855   8.949  88.586  1.00  0.00     0.198 C 
HETATM    6  C   UNK A   0       2.333   6.814  87.749  1.00  0.00     0.198 C 
ENDROOT
BRANCH   2   7
HETATM    7  C   UNK A   0       5.937   7.538  86.961  1.00  0.00     0.311 C 
BRANCH   7   8
HETATM    8  C   UNK A   0       7.034   6.930  87.767  1.00  0.00    -0.030 A 
HETATM    9  C   UNK A   0       6.819   6.615  89.109  1.00  0.00     0.010 A 
HETATM   10  C   UNK A   0       7.846   6.048  89.865  1.00  0.00     0.021 A 
HETATM   11  C   UNK A   0       9.085   5.795  89.277  1.00  0.00     0.018 A 
HETATM   12  C   UNK A   0       9.300   6.109  87.937  1.00  0.00     0.021 A 
HETATM   13  C   UNK A   0       8.274   6.677  87.181  1.00  0.00     0.010 A 
BRANCH  11  14
HETATM   14  C   UNK A   0      10.137   5.212  90.052  1.00  0.00    -0.061 C 
HETATM   15  C   UNK A   0      11.021   4.722  90.703  1.00  0.00    -0.061 C 
BRANCH  15  16
HETATM   16  C   UNK A   0      12.073   4.140  91.477  1.00  0.00     0.018 A 
HETATM   17  C   UNK A   0      11.842   3.778  92.804  1.00  0.00     0.022 A 
HETATM   18  C   UNK A   0      12.868   3.207  93.558  1.00  0.00     0.018 A 
HETATM   19  C   UNK A   0      14.099   3.011  92.969  1.00  0.00     0.032 A 
HETATM   20  C   UNK A   0      14.352   3.361  91.659  1.00  0.00     0.018 A 
HETATM   21  C   UNK A   0      13.328   3.932  90.904  1.00  0.00     0.022 A 
BRANCH  19  22
HETATM   22  C   UNK A   0      15.192   2.406  93.773  1.00  0.00     0.252 C 
HETATM   23  O   UNK A   0      16.339   2.823  93.637  1.00  0.00    -0.268 OA
ENDBRANCH  19  22
ENDBRANCH  15  16
ENDBRANCH  11  14
ENDBRANCH   7   8
ENDBRANCH   2   7
TORSDOF 9
ENDMDL
