MODEL 1
REMARK VINA RESULT:      -7.0      0.000      0.000
REMARK  11 active torsions:
REMARK  status: ('A' for Active; 'I' for Inactive)
REMARK    1  A    between atoms: O_2  and  C_18 
REMARK    2  A    between atoms: O_5  and  P_8 
REMARK    3  A    between atoms: N_6  and  C_11 
REMARK    4  A    between atoms: N_7  and  C_15 
REMARK       I    between atoms: N_7  and  C_24 
REMARK    5  A    between atoms: P_8  and  C_23 
REMARK    6  A    between atoms: C_11  and  C_14 
REMARK    7  A    between atoms: C_15  and  C_18 
REMARK    8  A    between atoms: C_15  and  C_23 
REMARK    9  A    between atoms: C_21  and  C_26 
REMARK   10  A    between atoms: C_24  and  C_25 
REMARK   11  A    between atoms: C_29  and  C_32 
ROOT
HETATM    1  O   UNL     1      16.295   4.264  94.046  1.00  0.00     0.000 OA
HETATM    2  N   UNL     1      14.520   2.620  92.546  1.00  0.00     0.000 N 
HETATM    3  C   UNL     1      14.463   4.086  92.464  1.00  0.00     0.000 C 
HETATM    4  C   UNL     1      15.019   2.209  93.866  1.00  0.00     0.000 C 
HETATM    5  C   UNL     1      15.841   4.674  92.755  1.00  0.00     0.000 C 
HETATM    6  C   UNL     1      16.383   2.841  94.124  1.00  0.00     0.000 C 
ENDROOT
BRANCH   2   7
HETATM    7  C   UNL     1      13.207   2.035  92.281  1.00  0.00     0.000 C 
BRANCH   7   8
HETATM    8  C   UNL     1      12.174   3.069  91.984  1.00  0.00     0.000 A 
HETATM    9  C   UNL     1      11.567   3.767  93.028  1.00  0.00     0.000 A 
HETATM   10  C   UNL     1      10.599   4.733  92.751  1.00  0.00     0.000 A 
HETATM   11  C   UNL     1      10.241   5.001  91.431  1.00  0.00     0.000 A 
HETATM   12  C   UNL     1      10.848   4.305  90.387  1.00  0.00     0.000 A 
HETATM   13  C   UNL     1      11.815   3.339  90.663  1.00  0.00     0.000 A 
BRANCH  11  14
HETATM   14  C   UNL     1       9.250   5.993  91.147  1.00  0.00     0.000 C 
HETATM   15  C   UNL     1       8.418   6.827  90.908  1.00  0.00     0.000 C 
BRANCH  15  16
HETATM   16  C   UNL     1       7.428   7.819  90.623  1.00  0.00     0.000 A 
HETATM   17  C   UNL     1       6.364   7.516  89.773  1.00  0.00     0.000 A 
HETATM   18  C   UNL     1       5.396   8.483  89.497  1.00  0.00     0.000 A 
HETATM   19  C   UNL     1       5.514   9.728  90.078  1.00  0.00     0.000 A 
HETATM   20  C   UNL     1       6.556  10.052  90.921  1.00  0.00     0.000 A 
HETATM   21  C   UNL     1       7.524   9.086  91.197  1.00  0.00     0.000 A 
BRANCH  19  22
HETATM   22  C   UNL     1       4.484  10.758  89.783  1.00  0.00     0.000 C 
HETATM   23  O   UNL     1       3.467  10.432  89.176  1.00  0.00     0.000 OA
HETATM   24  N   UNL     1       4.751  12.037  90.251  1.00  0.00     0.000 N 
HETATM   25  HN  UNL     1       5.603  12.226  90.767  1.00  0.00     0.000 HD
BRANCH  24  26
HETATM   26  C   UNL     1       3.840  13.137  90.065  1.00  0.00     0.000 C 
BRANCH  26  27
HETATM   27  C   UNL     1       3.260  13.657  91.387  1.00  0.00     0.000 C 
HETATM   28  C   UNL     1       2.293  12.669  92.029  1.00  0.00     0.000 C 
BRANCH  27  29
HETATM   29  O   UNL     1       4.323  13.926  92.301  1.00  0.00     0.000 OA
HETATM   30  H   UNL     1       5.082  14.263  91.796  1.00  0.00     0.000 HD
ENDBRANCH  27  29
ENDBRANCH  26  27
BRANCH  26  31
HETATM   31  C   UNL     1       4.583  14.237  89.315  1.00  0.00     0.000 C 
HETATM   32  O   UNL     1       4.530  15.422  89.637  1.00  0.00     0.000 OA
BRANCH  31  33
HETATM   33  P   UNL     1       5.275  13.750  88.232  1.00  0.00     0.000 P 
HETATM   34  H   UNL     1       5.785  14.827  87.536  1.00  0.00     0.000 HD
BRANCH  33  35
HETATM   35  O   UNL     1       4.531  12.972  87.333  1.00  0.00     0.000 OA
HETATM   36  H   UNL     1       4.424  12.158  87.855  1.00  0.00     0.000 HD
ENDBRANCH  33  35
ENDBRANCH  31  33
ENDBRANCH  26  31
ENDBRANCH  24  26
ENDBRANCH  19  22
ENDBRANCH  15  16
ENDBRANCH  11  14
ENDBRANCH   7   8
ENDBRANCH   2   7
TORSDOF 11
ENDMDL
MODEL 2
REMARK VINA RESULT:      -6.0      0.602      1.339
REMARK  11 active torsions:
REMARK  status: ('A' for Active; 'I' for Inactive)
REMARK    1  A    between atoms: O_2  and  C_18 
REMARK    2  A    between atoms: O_5  and  P_8 
REMARK    3  A    between atoms: N_6  and  C_11 
REMARK    4  A    between atoms: N_7  and  C_15 
REMARK       I    between atoms: N_7  and  C_24 
REMARK    5  A    between atoms: P_8  and  C_23 
REMARK    6  A    between atoms: C_11  and  C_14 
REMARK    7  A    between atoms: C_15  and  C_18 
REMARK    8  A    between atoms: C_15  and  C_23 
REMARK    9  A    between atoms: C_21  and  C_26 
REMARK   10  A    between atoms: C_24  and  C_25 
REMARK   11  A    between atoms: C_29  and  C_32 
ROOT
HETATM    1  O   UNL     1      15.923   4.553  93.655  1.00  0.00     0.000 OA
HETATM    2  N   UNL     1      14.105   2.676  92.526  1.00  0.00     0.000 N 
HETATM    3  C   UNL     1      14.150   4.072  92.069  1.00  0.00     0.000 C 
HETATM    4  C   UNL     1      14.520   2.593  93.933  1.00  0.00     0.000 C 
HETATM    5  C   UNL     1      15.552   4.640  92.278  1.00  0.00     0.000 C 
HETATM    6  C   UNL     1      15.912   3.196  94.099  1.00  0.00     0.000 C 
ENDROOT
BRANCH   2   7
HETATM    7  C   UNL     1      12.768   2.115  92.345  1.00  0.00     0.000 C 
BRANCH   7   8
HETATM    8  C   UNL     1      11.744   3.163  92.069  1.00  0.00     0.000 A 
HETATM    9  C   UNL     1      11.136   3.230  90.815  1.00  0.00     0.000 A 
HETATM   10  C   UNL     1      10.180   4.211  90.555  1.00  0.00     0.000 A 
HETATM   11  C   UNL     1       9.832   5.125  91.550  1.00  0.00     0.000 A 
HETATM   12  C   UNL     1      10.438   5.059  92.802  1.00  0.00     0.000 A 
HETATM   13  C   UNL     1      11.395   4.078  93.063  1.00  0.00     0.000 A 
BRANCH  11  14
HETATM   14  C   UNL     1       8.849   6.130  91.284  1.00  0.00     0.000 C 
HETATM   15  C   UNL     1       8.024   6.976  91.061  1.00  0.00     0.000 C 
BRANCH  15  16
HETATM   16  C   UNL     1       7.043   7.981  90.795  1.00  0.00     0.000 A 
HETATM   17  C   UNL     1       7.157   9.239  91.388  1.00  0.00     0.000 A 
HETATM   18  C   UNL     1       6.201  10.221  91.127  1.00  0.00     0.000 A 
HETATM   19  C   UNL     1       5.155   9.924  90.279  1.00  0.00     0.000 A 
HETATM   20  C   UNL     1       5.020   8.688  89.681  1.00  0.00     0.000 A 
HETATM   21  C   UNL     1       5.975   7.706  89.942  1.00  0.00     0.000 A 
BRANCH  19  22
HETATM   22  C   UNL     1       4.136  10.969  90.003  1.00  0.00     0.000 C 
HETATM   23  O   UNL     1       3.084  10.652  89.452  1.00  0.00     0.000 OA
HETATM   24  N   UNL     1       4.453  12.254  90.423  1.00  0.00     0.000 N 
HETATM   25  HN  UNL     1       5.331  12.437  90.894  1.00  0.00     0.000 HD
BRANCH  24  26
HETATM   26  C   UNL     1       3.559  13.370  90.248  1.00  0.00     0.000 C 
BRANCH  26  27
HETATM   27  C   UNL     1       2.926  13.835  91.566  1.00  0.00     0.000 C 
HETATM   28  C   UNL     1       1.774  12.939  92.008  1.00  0.00     0.000 C 
BRANCH  27  29
HETATM   29  O   UNL     1       3.918  13.854  92.591  1.00  0.00     0.000 OA
HETATM   30  H   UNL     1       3.670  14.532  93.243  1.00  0.00     0.000 HD
ENDBRANCH  27  29
ENDBRANCH  26  27
BRANCH  26  31
HETATM   31  C   UNL     1       4.343  14.496  89.582  1.00  0.00     0.000 C 
HETATM   32  O   UNL     1       4.489  15.604  90.094  1.00  0.00     0.000 OA
BRANCH  31  33
HETATM   33  P   UNL     1       4.822  14.134  88.346  1.00  0.00     0.000 P 
HETATM   34  H   UNL     1       3.958  13.198  87.815  1.00  0.00     0.000 HD
BRANCH  33  35
HETATM   35  O   UNL     1       6.113  13.587  88.328  1.00  0.00     0.000 OA
HETATM   36  H   UNL     1       6.218  13.420  87.376  1.00  0.00     0.000 HD
ENDBRANCH  33  35
ENDBRANCH  31  33
ENDBRANCH  26  31
ENDBRANCH  24  26
ENDBRANCH  19  22
ENDBRANCH  15  16
ENDBRANCH  11  14
ENDBRANCH   7   8
ENDBRANCH   2   7
TORSDOF 11
ENDMDL
MODEL 3
REMARK VINA RESULT:      -4.8      1.852      2.496
REMARK  11 active torsions:
REMARK  status: ('A' for Active; 'I' for Inactive)
REMARK    1  A    between atoms: O_2  and  C_18 
REMARK    2  A    between atoms: O_5  and  P_8 
REMARK    3  A    between atoms: N_6  and  C_11 
REMARK    4  A    between atoms: N_7  and  C_15 
REMARK       I    between atoms: N_7  and  C_24 
REMARK    5  A    between atoms: P_8  and  C_23 
REMARK    6  A    between atoms: C_11  and  C_14 
REMARK    7  A    between atoms: C_15  and  C_18 
REMARK    8  A    between atoms: C_15  and  C_23 
REMARK    9  A    between atoms: C_21  and  C_26 
REMARK   10  A    between atoms: C_24  and  C_25 
REMARK   11  A    between atoms: C_29  and  C_32 
ROOT
HETATM    1  O   UNL     1      16.456   2.834  92.968  1.00  0.00     0.000 OA
HETATM    2  N   UNL     1      13.619   3.024  92.842  1.00  0.00     0.000 N 
HETATM    3  C   UNL     1      14.285   2.046  93.713  1.00  0.00     0.000 C 
HETATM    4  C   UNL     1      14.461   3.313  91.673  1.00  0.00     0.000 C 
HETATM    5  C   UNL     1      15.659   2.571  94.124  1.00  0.00     0.000 C 
HETATM    6  C   UNL     1      15.830   3.807  92.131  1.00  0.00     0.000 C 
ENDROOT
BRANCH   2   7
HETATM    7  C   UNL     1      12.304   2.537  92.428  1.00  0.00     0.000 C 
BRANCH   7   8
HETATM    8  C   UNL     1      11.264   3.604  92.470  1.00  0.00     0.000 A 
HETATM    9  C   UNL     1      10.290   3.666  91.473  1.00  0.00     0.000 A 
HETATM   10  C   UNL     1       9.317   4.665  91.511  1.00  0.00     0.000 A 
HETATM   11  C   UNL     1       9.318   5.599  92.546  1.00  0.00     0.000 A 
HETATM   12  C   UNL     1      10.291   5.538  93.542  1.00  0.00     0.000 A 
HETATM   13  C   UNL     1      11.264   4.539  93.505  1.00  0.00     0.000 A 
BRANCH  11  14
HETATM   14  C   UNL     1       8.319   6.623  92.585  1.00  0.00     0.000 C 
HETATM   15  C   UNL     1       7.480   7.483  92.619  1.00  0.00     0.000 C 
BRANCH  15  16
HETATM   16  C   UNL     1       6.482   8.507  92.659  1.00  0.00     0.000 A 
HETATM   17  C   UNL     1       5.513   8.496  93.662  1.00  0.00     0.000 A 
HETATM   18  C   UNL     1       4.541   9.496  93.702  1.00  0.00     0.000 A 
HETATM   19  C   UNL     1       4.561  10.483  92.739  1.00  0.00     0.000 A 
HETATM   20  C   UNL     1       5.508  10.516  91.738  1.00  0.00     0.000 A 
HETATM   21  C   UNL     1       6.480   9.516  91.697  1.00  0.00     0.000 A 
BRANCH  19  22
HETATM   22  C   UNL     1       3.525  11.547  92.781  1.00  0.00     0.000 C 
HETATM   23  O   UNL     1       2.607  11.459  93.594  1.00  0.00     0.000 OA
HETATM   24  N   UNL     1       3.695  12.597  91.889  1.00  0.00     0.000 N 
HETATM   25  HN  UNL     1       4.492  12.615  91.264  1.00  0.00     0.000 HD
BRANCH  24  26
HETATM   26  C   UNL     1       2.788  13.715  91.826  1.00  0.00     0.000 C 
BRANCH  26  27
HETATM   27  C   UNL     1       3.258  14.909  92.666  1.00  0.00     0.000 C 
HETATM   28  C   UNL     1       2.242  15.311  93.729  1.00  0.00     0.000 C 
BRANCH  27  29
HETATM   29  O   UNL     1       4.493  14.587  93.304  1.00  0.00     0.000 OA
HETATM   30  H   UNL     1       5.071  14.158  92.651  1.00  0.00     0.000 HD
ENDBRANCH  27  29
ENDBRANCH  26  27
BRANCH  26  31
HETATM   31  C   UNL     1       2.625  14.100  90.359  1.00  0.00     0.000 C 
HETATM   32  O   UNL     1       1.552  14.458  89.876  1.00  0.00     0.000 OA
BRANCH  31  33
HETATM   33  P   UNL     1       3.795  13.960  89.652  1.00  0.00     0.000 P 
HETATM   34  H   UNL     1       4.161  15.208  89.190  1.00  0.00     0.000 HD
BRANCH  33  35
HETATM   35  O   UNL     1       3.743  13.092  88.552  1.00  0.00     0.000 OA
HETATM   36  H   UNL     1       3.080  12.453  88.865  1.00  0.00     0.000 HD
ENDBRANCH  33  35
ENDBRANCH  31  33
ENDBRANCH  26  31
ENDBRANCH  24  26
ENDBRANCH  19  22
ENDBRANCH  15  16
ENDBRANCH  11  14
ENDBRANCH   7   8
ENDBRANCH   2   7
TORSDOF 11
ENDMDL
MODEL 4
REMARK VINA RESULT:      -4.7      3.488     12.232
REMARK  11 active torsions:
REMARK  status: ('A' for Active; 'I' for Inactive)
REMARK    1  A    between atoms: O_2  and  C_18 
REMARK    2  A    between atoms: O_5  and  P_8 
REMARK    3  A    between atoms: N_6  and  C_11 
REMARK    4  A    between atoms: N_7  and  C_15 
REMARK       I    between atoms: N_7  and  C_24 
REMARK    5  A    between atoms: P_8  and  C_23 
REMARK    6  A    between atoms: C_11  and  C_14 
REMARK    7  A    between atoms: C_15  and  C_18 
REMARK    8  A    between atoms: C_15  and  C_23 
REMARK    9  A    between atoms: C_21  and  C_26 
REMARK   10  A    between atoms: C_24  and  C_25 
REMARK   11  A    between atoms: C_29  and  C_32 
ROOT
HETATM    1  O   UNL     1       2.147  13.684  93.936  1.00  0.00     0.000 OA
HETATM    2  N   UNL     1       2.293  13.905  91.102  1.00  0.00     0.000 N 
HETATM    3  C   UNL     1       1.943  12.636  91.756  1.00  0.00     0.000 C 
HETATM    4  C   UNL     1       3.159  14.703  91.981  1.00  0.00     0.000 C 
HETATM    5  C   UNL     1       1.278  12.915  93.102  1.00  0.00     0.000 C 
HETATM    6  C   UNL     1       2.467  14.932  93.321  1.00  0.00     0.000 C 
ENDROOT
BRANCH   2   7
HETATM    7  C   UNL     1       2.941  13.662  89.815  1.00  0.00     0.000 C 
BRANCH   7   8
HETATM    8  C   UNL     1       3.879  12.504  89.861  1.00  0.00     0.000 A 
HETATM    9  C   UNL     1       4.876  12.454  90.836  1.00  0.00     0.000 A 
HETATM   10  C   UNL     1       5.756  11.373  90.878  1.00  0.00     0.000 A 
HETATM   11  C   UNL     1       5.637  10.341  89.948  1.00  0.00     0.000 A 
HETATM   12  C   UNL     1       4.641  10.390  88.974  1.00  0.00     0.000 A 
HETATM   13  C   UNL     1       3.762  11.471  88.930  1.00  0.00     0.000 A 
BRANCH  11  14
HETATM   14  C   UNL     1       6.538   9.231  89.993  1.00  0.00     0.000 C 
HETATM   15  C   UNL     1       7.296   8.298  90.031  1.00  0.00     0.000 C 
BRANCH  15  16
HETATM   16  C   UNL     1       8.197   7.189  90.076  1.00  0.00     0.000 A 
HETATM   17  C   UNL     1       9.010   6.998  91.193  1.00  0.00     0.000 A 
HETATM   18  C   UNL     1       9.888   5.914  91.238  1.00  0.00     0.000 A 
HETATM   19  C   UNL     1       9.932   5.047  90.167  1.00  0.00     0.000 A 
HETATM   20  C   UNL     1       9.138   5.215  89.051  1.00  0.00     0.000 A 
HETATM   21  C   UNL     1       8.261   6.298  89.005  1.00  0.00     0.000 A 
BRANCH  19  22
HETATM   22  C   UNL     1      10.868   3.894  90.214  1.00  0.00     0.000 C 
HETATM   23  O   UNL     1      10.771   3.008  89.369  1.00  0.00     0.000 OA
HETATM   24  N   UNL     1      11.819   3.925  91.224  1.00  0.00     0.000 N 
HETATM   25  HN  UNL     1      11.855   4.703  91.872  1.00  0.00     0.000 HD
BRANCH  24  26
HETATM   26  C   UNL     1      12.811   2.893  91.387  1.00  0.00     0.000 C 
BRANCH  26  27
HETATM   27  C   UNL     1      14.199   3.319  90.891  1.00  0.00     0.000 C 
HETATM   28  C   UNL     1      14.250   4.791  90.494  1.00  0.00     0.000 C 
BRANCH  27  29
HETATM   29  O   UNL     1      15.165   3.081  91.914  1.00  0.00     0.000 OA
HETATM   30  H   UNL     1      15.246   2.121  92.039  1.00  0.00     0.000 HD
ENDBRANCH  27  29
ENDBRANCH  26  27
BRANCH  26  31
HETATM   31  C   UNL     1      12.844   2.506  92.862  1.00  0.00     0.000 C 
HETATM   32  O   UNL     1      13.344   1.459  93.269  1.00  0.00     0.000 OA
BRANCH  31  33
HETATM   33  P   UNL     1      12.224   3.439  93.657  1.00  0.00     0.000 P 
HETATM   34  H   UNL     1      11.188   3.992  92.931  1.00  0.00     0.000 HD
BRANCH  33  35
HETATM   35  O   UNL     1      13.035   4.487  94.115  1.00  0.00     0.000 OA
HETATM   36  H   UNL     1      12.373   5.195  94.200  1.00  0.00     0.000 HD
ENDBRANCH  33  35
ENDBRANCH  31  33
ENDBRANCH  26  31
ENDBRANCH  24  26
ENDBRANCH  19  22
ENDBRANCH  15  16
ENDBRANCH  11  14
ENDBRANCH   7   8
ENDBRANCH   2   7
TORSDOF 11
ENDMDL
MODEL 5
REMARK VINA RESULT:      -4.6      3.620     12.433
REMARK  11 active torsions:
REMARK  status: ('A' for Active; 'I' for Inactive)
REMARK    1  A    between atoms: O_2  and  C_18 
REMARK    2  A    between atoms: O_5  and  P_8 
REMARK    3  A    between atoms: N_6  and  C_11 
REMARK    4  A    between atoms: N_7  and  C_15 
REMARK       I    between atoms: N_7  and  C_24 
REMARK    5  A    between atoms: P_8  and  C_23 
REMARK    6  A    between atoms: C_11  and  C_14 
REMARK    7  A    between atoms: C_15  and  C_18 
REMARK    8  A    between atoms: C_15  and  C_23 
REMARK    9  A    between atoms: C_21  and  C_26 
REMARK   10  A    between atoms: C_24  and  C_25 
REMARK   11  A    between atoms: C_29  and  C_32 
ROOT
HETATM    1  O   UNL     1       4.169  14.698  89.481  1.00  0.00     0.000 OA
HETATM    2  N   UNL     1       3.141  14.006  92.043  1.00  0.00     0.000 N 
HETATM    3  C   UNL     1       4.461  14.634  91.889  1.00  0.00     0.000 C 
HETATM    4  C   UNL     1       2.816  13.218  90.846  1.00  0.00     0.000 C 
HETATM    5  C   UNL     1       4.481  15.492  90.627  1.00  0.00     0.000 C 
HETATM    6  C   UNL     1       2.875  14.108  89.609  1.00  0.00     0.000 C 
ENDROOT
BRANCH   2   7
HETATM    7  C   UNL     1       3.103  13.169  93.241  1.00  0.00     0.000 C 
BRANCH   7   8
HETATM    8  C   UNL     1       4.095  12.058  93.190  1.00  0.00     0.000 A 
HETATM    9  C   UNL     1       5.131  12.005  94.123  1.00  0.00     0.000 A 
HETATM   10  C   UNL     1       6.061  10.967  94.075  1.00  0.00     0.000 A 
HETATM   11  C   UNL     1       5.953   9.980  93.096  1.00  0.00     0.000 A 
HETATM   12  C   UNL     1       4.918  10.031  92.164  1.00  0.00     0.000 A 
HETATM   13  C   UNL     1       3.989  11.070  92.211  1.00  0.00     0.000 A 
BRANCH  11  14
HETATM   14  C   UNL     1       6.906   8.914  93.048  1.00  0.00     0.000 C 
HETATM   15  C   UNL     1       7.706   8.018  93.007  1.00  0.00     0.000 C 
BRANCH  15  16
HETATM   16  C   UNL     1       8.658   6.952  92.958  1.00  0.00     0.000 A 
HETATM   17  C   UNL     1       8.472   5.893  92.070  1.00  0.00     0.000 A 
HETATM   18  C   UNL     1       9.403   4.855  92.021  1.00  0.00     0.000 A 
HETATM   19  C   UNL     1      10.497   4.900  92.859  1.00  0.00     0.000 A 
HETATM   20  C   UNL     1      10.703   5.936  93.746  1.00  0.00     0.000 A 
HETATM   21  C   UNL     1       9.773   6.974  93.796  1.00  0.00     0.000 A 
BRANCH  19  22
HETATM   22  C   UNL     1      11.487   3.793  92.807  1.00  0.00     0.000 C 
HETATM   23  O   UNL     1      11.113   2.668  92.488  1.00  0.00     0.000 OA
HETATM   24  N   UNL     1      12.798   4.135  93.109  1.00  0.00     0.000 N 
HETATM   25  HN  UNL     1      13.038   5.092  93.341  1.00  0.00     0.000 HD
BRANCH  24  26
HETATM   26  C   UNL     1      13.876   3.179  93.079  1.00  0.00     0.000 C 
BRANCH  26  27
HETATM   27  C   UNL     1      14.169   2.660  91.666  1.00  0.00     0.000 C 
HETATM   28  C   UNL     1      14.288   3.785  90.644  1.00  0.00     0.000 C 
BRANCH  27  29
HETATM   29  O   UNL     1      15.385   1.912  91.675  1.00  0.00     0.000 OA
HETATM   30  H   UNL     1      15.443   1.434  92.520  1.00  0.00     0.000 HD
ENDBRANCH  27  29
ENDBRANCH  26  27
BRANCH  26  31
HETATM   31  C   UNL     1      15.104   3.843  93.693  1.00  0.00     0.000 C 
HETATM   32  O   UNL     1      15.247   5.063  93.753  1.00  0.00     0.000 OA
BRANCH  31  33
HETATM   33  P   UNL     1      16.030   2.924  94.124  1.00  0.00     0.000 P 
HETATM   34  H   UNL     1      15.959   2.866  95.501  1.00  0.00     0.000 HD
BRANCH  33  35
HETATM   35  O   UNL     1      17.361   3.188  93.773  1.00  0.00     0.000 OA
HETATM   36  H   UNL     1      17.276   4.095  93.434  1.00  0.00     0.000 HD
ENDBRANCH  33  35
ENDBRANCH  31  33
ENDBRANCH  26  31
ENDBRANCH  24  26
ENDBRANCH  19  22
ENDBRANCH  15  16
ENDBRANCH  11  14
ENDBRANCH   7   8
ENDBRANCH   2   7
TORSDOF 11
ENDMDL
MODEL 6
REMARK VINA RESULT:      -4.6      3.422     12.701
REMARK  11 active torsions:
REMARK  status: ('A' for Active; 'I' for Inactive)
REMARK    1  A    between atoms: O_2  and  C_18 
REMARK    2  A    between atoms: O_5  and  P_8 
REMARK    3  A    between atoms: N_6  and  C_11 
REMARK    4  A    between atoms: N_7  and  C_15 
REMARK       I    between atoms: N_7  and  C_24 
REMARK    5  A    between atoms: P_8  and  C_23 
REMARK    6  A    between atoms: C_11  and  C_14 
REMARK    7  A    between atoms: C_15  and  C_18 
REMARK    8  A    between atoms: C_15  and  C_23 
REMARK    9  A    between atoms: C_21  and  C_26 
REMARK   10  A    between atoms: C_24  and  C_25 
REMARK   11  A    between atoms: C_29  and  C_32 
ROOT
HETATM    1  O   UNL     1       1.661  15.200  92.508  1.00  0.00     0.000 OA
HETATM    2  N   UNL     1       3.582  13.497  91.280  1.00  0.00     0.000 N 
HETATM    3  C   UNL     1       3.938  14.843  91.748  1.00  0.00     0.000 C 
HETATM    4  C   UNL     1       2.163  13.454  90.901  1.00  0.00     0.000 C 
HETATM    5  C   UNL     1       3.031  15.243  92.910  1.00  0.00     0.000 C 
HETATM    6  C   UNL     1       1.299  13.886  92.080  1.00  0.00     0.000 C 
ENDROOT
BRANCH   2   7
HETATM    7  C   UNL     1       4.432  13.097  90.160  1.00  0.00     0.000 C 
BRANCH   7   8
HETATM    8  C   UNL     1       5.332  11.961  90.507  1.00  0.00     0.000 A 
HETATM    9  C   UNL     1       6.278  11.514  89.583  1.00  0.00     0.000 A 
HETATM   10  C   UNL     1       7.119  10.449  89.906  1.00  0.00     0.000 A 
HETATM   11  C   UNL     1       7.016   9.834  91.153  1.00  0.00     0.000 A 
HETATM   12  C   UNL     1       6.072  10.279  92.076  1.00  0.00     0.000 A 
HETATM   13  C   UNL     1       5.230  11.343  91.753  1.00  0.00     0.000 A 
BRANCH  11  14
HETATM   14  C   UNL     1       7.881   8.743  91.484  1.00  0.00     0.000 C 
HETATM   15  C   UNL     1       8.608   7.827  91.763  1.00  0.00     0.000 C 
BRANCH  15  16
HETATM   16  C   UNL     1       9.472   6.738  92.096  1.00  0.00     0.000 A 
HETATM   17  C   UNL     1       9.608   6.337  93.425  1.00  0.00     0.000 A 
HETATM   18  C   UNL     1      10.449   5.272  93.749  1.00  0.00     0.000 A 
HETATM   19  C   UNL     1      11.134   4.632  92.737  1.00  0.00     0.000 A 
HETATM   20  C   UNL     1      11.017   5.010  91.416  1.00  0.00     0.000 A 
HETATM   21  C   UNL     1      10.176   6.074  91.091  1.00  0.00     0.000 A 
BRANCH  19  22
HETATM   22  C   UNL     1      12.031   3.500  93.083  1.00  0.00     0.000 C 
HETATM   23  O   UNL     1      11.588   2.354  93.059  1.00  0.00     0.000 OA
HETATM   24  N   UNL     1      13.342   3.835  93.391  1.00  0.00     0.000 N 
HETATM   25  HN  UNL     1      13.644   4.802  93.365  1.00  0.00     0.000 HD
BRANCH  24  26
HETATM   26  C   UNL     1      14.338   2.847  93.722  1.00  0.00     0.000 C 
BRANCH  26  27
HETATM   27  C   UNL     1      14.447   1.737  92.669  1.00  0.00     0.000 C 
HETATM   28  C   UNL     1      15.340   2.131  91.497  1.00  0.00     0.000 C 
BRANCH  27  29
HETATM   29  O   UNL     1      14.970   0.555  93.274  1.00  0.00     0.000 OA
HETATM   30  H   UNL     1      14.280  -0.129  93.253  1.00  0.00     0.000 HD
ENDBRANCH  27  29
ENDBRANCH  26  27
BRANCH  26  31
HETATM   31  C   UNL     1      15.668   3.570  93.906  1.00  0.00     0.000 C 
HETATM   32  O   UNL     1      16.726   2.982  94.124  1.00  0.00     0.000 OA
BRANCH  31  33
HETATM   33  P   UNL     1      15.531   4.935  93.838  1.00  0.00     0.000 P 
HETATM   34  H   UNL     1      14.294   5.209  93.290  1.00  0.00     0.000 HD
BRANCH  33  35
HETATM   35  O   UNL     1      16.497   5.609  93.077  1.00  0.00     0.000 OA
HETATM   36  H   UNL     1      15.963   5.866  92.306  1.00  0.00     0.000 HD
ENDBRANCH  33  35
ENDBRANCH  31  33
ENDBRANCH  26  31
ENDBRANCH  24  26
ENDBRANCH  19  22
ENDBRANCH  15  16
ENDBRANCH  11  14
ENDBRANCH   7   8
ENDBRANCH   2   7
TORSDOF 11
ENDMDL
MODEL 7
REMARK VINA RESULT:      -4.0      3.246     12.557
REMARK  11 active torsions:
REMARK  status: ('A' for Active; 'I' for Inactive)
REMARK    1  A    between atoms: O_2  and  C_18 
REMARK    2  A    between atoms: O_5  and  P_8 
REMARK    3  A    between atoms: N_6  and  C_11 
REMARK    4  A    between atoms: N_7  and  C_15 
REMARK       I    between atoms: N_7  and  C_24 
REMARK    5  A    between atoms: P_8  and  C_23 
REMARK    6  A    between atoms: C_11  and  C_14 
REMARK    7  A    between atoms: C_15  and  C_18 
REMARK    8  A    between atoms: C_15  and  C_23 
REMARK    9  A    between atoms: C_21  and  C_26 
REMARK   10  A    between atoms: C_24  and  C_25 
REMARK   11  A    between atoms: C_29  and  C_32 
ROOT
HETATM    1  O   UNL     1       3.660  15.242  89.924  1.00  0.00     0.000 OA
HETATM    2  N   UNL     1       4.191  12.861  91.391  1.00  0.00     0.000 N 
HETATM    3  C   UNL     1       3.656  12.817  90.023  1.00  0.00     0.000 C 
HETATM    4  C   UNL     1       3.761  14.097  92.060  1.00  0.00     0.000 C 
HETATM    5  C   UNL     1       4.100  14.059  89.254  1.00  0.00     0.000 C 
HETATM    6  C   UNL     1       4.201  15.308  91.244  1.00  0.00     0.000 C 
ENDROOT
BRANCH   2   7
HETATM    7  C   UNL     1       3.768  11.685  92.150  1.00  0.00     0.000 C 
BRANCH   7   8
HETATM    8  C   UNL     1       4.847  10.662  92.259  1.00  0.00     0.000 A 
HETATM    9  C   UNL     1       5.174  10.124  93.504  1.00  0.00     0.000 A 
HETATM   10  C   UNL     1       6.185   9.169  93.608  1.00  0.00     0.000 A 
HETATM   11  C   UNL     1       6.866   8.750  92.465  1.00  0.00     0.000 A 
HETATM   12  C   UNL     1       6.540   9.285  91.221  1.00  0.00     0.000 A 
HETATM   13  C   UNL     1       5.530  10.242  91.117  1.00  0.00     0.000 A 
BRANCH  11  14
HETATM   14  C   UNL     1       7.901   7.768  92.571  1.00  0.00     0.000 C 
HETATM   15  C   UNL     1       8.771   6.942  92.660  1.00  0.00     0.000 C 
BRANCH  15  16
HETATM   16  C   UNL     1       9.806   5.961  92.765  1.00  0.00     0.000 A 
HETATM   17  C   UNL     1      10.413   5.463  91.612  1.00  0.00     0.000 A 
HETATM   18  C   UNL     1      11.425   4.509  91.715  1.00  0.00     0.000 A 
HETATM   19  C   UNL     1      11.807   4.074  92.967  1.00  0.00     0.000 A 
HETATM   20  C   UNL     1      11.222   4.551  94.122  1.00  0.00     0.000 A 
HETATM   21  C   UNL     1      10.210   5.506  94.020  1.00  0.00     0.000 A 
BRANCH  19  22
HETATM   22  C   UNL     1      12.883   3.056  93.076  1.00  0.00     0.000 C 
HETATM   23  O   UNL     1      12.578   1.876  93.235  1.00  0.00     0.000 OA
HETATM   24  N   UNL     1      14.182   3.530  92.963  1.00  0.00     0.000 N 
HETATM   25  HN  UNL     1      14.357   4.516  92.808  1.00  0.00     0.000 HD
BRANCH  24  26
HETATM   26  C   UNL     1      15.332   2.663  93.024  1.00  0.00     0.000 C 
BRANCH  26  27
HETATM   27  C   UNL     1      15.807   2.210  91.637  1.00  0.00     0.000 C 
HETATM   28  C   UNL     1      15.107   2.956  90.507  1.00  0.00     0.000 C 
BRANCH  27  29
HETATM   29  O   UNL     1      17.215   2.414  91.525  1.00  0.00     0.000 OA
HETATM   30  H   UNL     1      17.511   2.036  90.680  1.00  0.00     0.000 HD
ENDBRANCH  27  29
ENDBRANCH  26  27
BRANCH  26  31
HETATM   31  C   UNL     1      16.435   3.404  93.773  1.00  0.00     0.000 C 
HETATM   32  O   UNL     1      17.486   2.868  94.118  1.00  0.00     0.000 OA
BRANCH  31  33
HETATM   33  P   UNL     1      16.095   4.708  94.041  1.00  0.00     0.000 P 
HETATM   34  H   UNL     1      14.720   4.774  94.140  1.00  0.00     0.000 HD
BRANCH  33  35
HETATM   35  O   UNL     1      16.504   5.653  93.089  1.00  0.00     0.000 OA
HETATM   36  H   UNL     1      16.619   5.080  92.313  1.00  0.00     0.000 HD
ENDBRANCH  33  35
ENDBRANCH  31  33
ENDBRANCH  26  31
ENDBRANCH  24  26
ENDBRANCH  19  22
ENDBRANCH  15  16
ENDBRANCH  11  14
ENDBRANCH   7   8
ENDBRANCH   2   7
TORSDOF 11
ENDMDL
