MODEL 1
REMARK VINA RESULT:      -7.3      0.000      0.000
REMARK  9 active torsions:
REMARK  status: ('A' for Active; 'I' for Inactive)
REMARK    1  A    between atoms: O_2  and  C_17 
REMARK    2  A    between atoms: N_5  and  C_10 
REMARK    3  A    between atoms: N_6  and  C_14 
REMARK       I    between atoms: N_6  and  C_23 
REMARK       I    between atoms: N_7  and  C_22 
REMARK    4  A    between atoms: C_10  and  C_13 
REMARK    5  A    between atoms: C_14  and  C_17 
REMARK    6  A    between atoms: C_14  and  C_22 
REMARK    7  A    between atoms: C_20  and  C_25 
REMARK    8  A    between atoms: C_23  and  C_24 
REMARK    9  A    between atoms: C_28  and  C_31 
ROOT
HETATM    1  O   UNL     1      16.689   3.503  93.695  1.00  0.00    -0.388 OA
HETATM    2  N   UNL     1      13.988   2.808  93.125  1.00  0.00     0.096 N 
HETATM    3  C   UNL     1      15.048   1.791  93.179  1.00  0.00     0.299 C 
HETATM    4  C   UNL     1      14.552   4.101  92.715  1.00  0.00     0.299 C 
HETATM    5  C   UNL     1      16.156   2.248  94.124  1.00  0.00     0.198 C 
HETATM    6  C   UNL     1      15.671   4.504  93.670  1.00  0.00     0.198 C 
ENDROOT
BRANCH   2   7
HETATM    7  C   UNL     1      12.920   2.395  92.216  1.00  0.00     0.311 C 
BRANCH   7   8
HETATM    8  C   UNL     1      12.004   3.518  91.869  1.00  0.00    -0.030 A 
HETATM    9  C   UNL     1      11.241   4.129  92.865  1.00  0.00     0.010 A 
HETATM   10  C   UNL     1      10.383   5.179  92.541  1.00  0.00     0.021 A 
HETATM   11  C   UNL     1      10.288   5.619  91.221  1.00  0.00     0.018 A 
HETATM   12  C   UNL     1      11.050   5.010  90.225  1.00  0.00     0.021 A 
HETATM   13  C   UNL     1      11.908   3.960  90.549  1.00  0.00     0.010 A 
BRANCH  11  14
HETATM   14  C   UNL     1       9.409   6.697  90.889  1.00  0.00    -0.061 C 
HETATM   15  C   UNL     1       8.669   7.604  90.610  1.00  0.00    -0.061 C 
BRANCH  15  16
HETATM   16  C   UNL     1       7.790   8.681  90.279  1.00  0.00     0.018 A 
HETATM   17  C   UNL     1       8.065   9.970  90.737  1.00  0.00     0.022 A 
HETATM   18  C   UNL     1       7.209  11.022  90.412  1.00  0.00     0.018 A 
HETATM   19  C   UNL     1       6.099  10.763  89.636  1.00  0.00     0.032 A 
HETATM   20  C   UNL     1       5.805   9.498  89.172  1.00  0.00     0.018 A 
HETATM   21  C   UNL     1       6.660   8.445  89.497  1.00  0.00     0.022 A 
BRANCH  19  22
HETATM   22  C   UNL     1       5.186  11.883  89.292  1.00  0.00     0.252 C 
HETATM   23  O   UNL     1       4.847  12.043  88.121  1.00  0.00    -0.268 OA
HETATM   24  N   UNL     1       4.758  12.668  90.354  1.00  0.00    -0.342 N 
HETATM   25  H   UNL     1       5.060  12.460  91.299  1.00  0.00     0.163 HD
BRANCH  24  26
HETATM   26  C   UNL     1       3.853  13.776  90.184  1.00  0.00     0.199 C 
BRANCH  26  27
HETATM   27  C   UNL     1       2.588  13.646  91.043  1.00  0.00     0.145 C 
HETATM   28  C   UNL     1       2.445  12.261  91.665  1.00  0.00     0.042 C 
BRANCH  27  29
HETATM   29  O   UNL     1       2.616  14.621  92.084  1.00  0.00    -0.393 OA
HETATM   30  H   UNL     1       1.827  15.181  91.999  1.00  0.00     0.210 HD
ENDBRANCH  27  29
ENDBRANCH  26  27
BRANCH  26  31
HETATM   31  C   UNL     1       4.616  15.055  90.511  1.00  0.00     0.220 C 
HETATM   32  O   UNL     1       4.681  15.525  91.646  1.00  0.00    -0.278 OA
HETATM   33  N   UNL     1       5.177  15.625  89.394  1.00  0.00    -0.271 NA
HETATM   34  H   UNL     1       5.068  15.315  88.435  1.00  0.00     0.127 HD
HETATM   35  H   UNL     1       4.789  16.797  88.726  1.00  0.00     0.127 HD
ENDBRANCH  26  31
ENDBRANCH  24  26
ENDBRANCH  19  22
ENDBRANCH  15  16
ENDBRANCH  11  14
ENDBRANCH   7   8
ENDBRANCH   2   7
TORSDOF 9
ENDMDL
MODEL 2
REMARK VINA RESULT:      -6.9      1.766      2.727
REMARK  9 active torsions:
REMARK  status: ('A' for Active; 'I' for Inactive)
REMARK    1  A    between atoms: O_2  and  C_17 
REMARK    2  A    between atoms: N_5  and  C_10 
REMARK    3  A    between atoms: N_6  and  C_14 
REMARK       I    between atoms: N_6  and  C_23 
REMARK       I    between atoms: N_7  and  C_22 
REMARK    4  A    between atoms: C_10  and  C_13 
REMARK    5  A    between atoms: C_14  and  C_17 
REMARK    6  A    between atoms: C_14  and  C_22 
REMARK    7  A    between atoms: C_20  and  C_25 
REMARK    8  A    between atoms: C_23  and  C_24 
REMARK    9  A    between atoms: C_28  and  C_31 
ROOT
HETATM    1  O   UNL     1      16.260   3.939  94.124  1.00  0.00    -0.388 OA
HETATM    2  N   UNL     1      14.286   2.653  92.526  1.00  0.00     0.096 N 
HETATM    3  C   UNL     1      14.428   4.116  92.542  1.00  0.00     0.299 C 
HETATM    4  C   UNL     1      14.718   2.091  93.814  1.00  0.00     0.299 C 
HETATM    5  C   UNL     1      15.872   4.491  92.865  1.00  0.00     0.198 C 
HETATM    6  C   UNL     1      16.154   2.515  94.107  1.00  0.00     0.198 C 
ENDROOT
BRANCH   2   7
HETATM    7  C   UNL     1      12.906   2.270  92.230  1.00  0.00     0.311 C 
BRANCH   7   8
HETATM    8  C   UNL     1      11.972   3.431  92.275  1.00  0.00    -0.030 A 
HETATM    9  C   UNL     1      11.416   3.924  91.094  1.00  0.00     0.010 A 
HETATM   10  C   UNL     1      10.544   5.011  91.135  1.00  0.00     0.021 A 
HETATM   11  C   UNL     1      10.227   5.604  92.357  1.00  0.00     0.018 A 
HETATM   12  C   UNL     1      10.782   5.113  93.537  1.00  0.00     0.021 A 
HETATM   13  C   UNL     1      11.655   4.026  93.496  1.00  0.00     0.010 A 
BRANCH  11  14
HETATM   14  C   UNL     1       9.330   6.718  92.399  1.00  0.00    -0.061 C 
HETATM   15  C   UNL     1       8.577   7.655  92.435  1.00  0.00    -0.061 C 
BRANCH  15  16
HETATM   16  C   UNL     1       7.682   8.769  92.478  1.00  0.00     0.018 A 
HETATM   17  C   UNL     1       7.552   9.513  93.650  1.00  0.00     0.022 A 
HETATM   18  C   UNL     1       6.680  10.602  93.691  1.00  0.00     0.018 A 
HETATM   19  C   UNL     1       5.960  10.921  92.559  1.00  0.00     0.032 A 
HETATM   20  C   UNL     1       6.070  10.201  91.388  1.00  0.00     0.018 A 
HETATM   21  C   UNL     1       6.941   9.112  91.347  1.00  0.00     0.022 A 
BRANCH  19  22
HETATM   22  C   UNL     1       5.030  12.080  92.603  1.00  0.00     0.252 C 
HETATM   23  O   UNL     1       4.688  12.533  93.693  1.00  0.00    -0.268 OA
HETATM   24  N   UNL     1       4.631  12.586  91.374  1.00  0.00    -0.342 N 
HETATM   25  H   UNL     1       4.975  12.175  90.514  1.00  0.00     0.163 HD
BRANCH  24  26
HETATM   26  C   UNL     1       3.752  13.721  91.251  1.00  0.00     0.199 C 
BRANCH  26  27
HETATM   27  C   UNL     1       3.748  14.319  89.839  1.00  0.00     0.145 C 
HETATM   28  C   UNL     1       4.998  15.144  89.551  1.00  0.00     0.042 C 
BRANCH  27  29
HETATM   29  O   UNL     1       3.653  13.269  88.876  1.00  0.00    -0.393 OA
HETATM   30  H   UNL     1       3.571  13.671  87.995  1.00  0.00     0.210 HD
ENDBRANCH  27  29
ENDBRANCH  26  27
BRANCH  26  31
HETATM   31  C   UNL     1       2.354  13.275  91.668  1.00  0.00     0.220 C 
HETATM   32  O   UNL     1       1.899  12.163  91.405  1.00  0.00    -0.278 OA
HETATM   33  N   UNL     1       1.668  14.266  92.328  1.00  0.00    -0.271 NA
HETATM   34  H   UNL     1       1.978  15.219  92.482  1.00  0.00     0.127 HD
HETATM   35  H   UNL     1       0.583  15.029  91.868  1.00  0.00     0.127 HD
ENDBRANCH  26  31
ENDBRANCH  24  26
ENDBRANCH  19  22
ENDBRANCH  15  16
ENDBRANCH  11  14
ENDBRANCH   7   8
ENDBRANCH   2   7
TORSDOF 9
ENDMDL
MODEL 3
REMARK VINA RESULT:      -6.4      1.338      2.027
REMARK  9 active torsions:
REMARK  status: ('A' for Active; 'I' for Inactive)
REMARK    1  A    between atoms: O_2  and  C_17 
REMARK    2  A    between atoms: N_5  and  C_10 
REMARK    3  A    between atoms: N_6  and  C_14 
REMARK       I    between atoms: N_6  and  C_23 
REMARK       I    between atoms: N_7  and  C_22 
REMARK    4  A    between atoms: C_10  and  C_13 
REMARK    5  A    between atoms: C_14  and  C_17 
REMARK    6  A    between atoms: C_14  and  C_22 
REMARK    7  A    between atoms: C_20  and  C_25 
REMARK    8  A    between atoms: C_23  and  C_24 
REMARK    9  A    between atoms: C_28  and  C_31 
ROOT
HETATM    1  O   UNL     1      16.390   2.766  93.765  1.00  0.00    -0.388 OA
HETATM    2  N   UNL     1      13.744   2.730  92.718  1.00  0.00     0.096 N 
HETATM    3  C   UNL     1      14.475   1.487  93.001  1.00  0.00     0.299 C 
HETATM    4  C   UNL     1      14.689   3.804  92.382  1.00  0.00     0.299 C 
HETATM    5  C   UNL     1      15.481   1.724  94.124  1.00  0.00     0.198 C 
HETATM    6  C   UNL     1      15.690   3.986  93.518  1.00  0.00     0.198 C 
ENDROOT
BRANCH   2   7
HETATM    7  C   UNL     1      12.780   2.529  91.637  1.00  0.00     0.311 C 
BRANCH   7   8
HETATM    8  C   UNL     1      11.792   3.641  91.542  1.00  0.00    -0.030 A 
HETATM    9  C   UNL     1      11.284   4.222  92.705  1.00  0.00     0.010 A 
HETATM   10  C   UNL     1      10.358   5.261  92.618  1.00  0.00     0.021 A 
HETATM   11  C   UNL     1       9.942   5.720  91.368  1.00  0.00     0.018 A 
HETATM   12  C   UNL     1      10.449   5.141  90.207  1.00  0.00     0.021 A 
HETATM   13  C   UNL     1      11.375   4.101  90.293  1.00  0.00     0.010 A 
BRANCH  11  14
HETATM   14  C   UNL     1       8.994   6.788  91.279  1.00  0.00    -0.061 C 
HETATM   15  C   UNL     1       8.197   7.685  91.203  1.00  0.00    -0.061 C 
BRANCH  15  16
HETATM   16  C   UNL     1       7.249   8.751  91.114  1.00  0.00     0.018 A 
HETATM   17  C   UNL     1       6.601   9.007  89.905  1.00  0.00     0.022 A 
HETATM   18  C   UNL     1       5.674  10.046  89.818  1.00  0.00     0.018 A 
HETATM   19  C   UNL     1       5.415  10.804  90.941  1.00  0.00     0.032 A 
HETATM   20  C   UNL     1       6.042  10.571  92.147  1.00  0.00     0.018 A 
HETATM   21  C   UNL     1       6.970   9.533  92.235  1.00  0.00     0.022 A 
BRANCH  19  22
HETATM   22  C   UNL     1       4.429  11.911  90.847  1.00  0.00     0.252 C 
HETATM   23  O   UNL     1       3.438  11.773  90.135  1.00  0.00    -0.268 OA
HETATM   24  N   UNL     1       4.703  13.036  91.614  1.00  0.00    -0.342 N 
HETATM   25  H   UNL     1       5.530  13.069  92.198  1.00  0.00     0.163 HD
BRANCH  24  26
HETATM   26  C   UNL     1       3.831  14.182  91.648  1.00  0.00     0.199 C 
BRANCH  26  27
HETATM   27  C   UNL     1       3.719  14.885  90.290  1.00  0.00     0.145 C 
HETATM   28  C   UNL     1       5.061  14.985  89.572  1.00  0.00     0.042 C 
BRANCH  27  29
HETATM   29  O   UNL     1       2.801  14.174  89.459  1.00  0.00    -0.393 OA
HETATM   30  H   UNL     1       2.184  13.689  90.032  1.00  0.00     0.210 HD
ENDBRANCH  27  29
ENDBRANCH  26  27
BRANCH  26  31
HETATM   31  C   UNL     1       2.467  13.714  92.145  1.00  0.00     0.220 C 
HETATM   32  O   UNL     1       1.406  14.138  91.688  1.00  0.00    -0.278 OA
HETATM   33  N   UNL     1       2.571  12.807  93.172  1.00  0.00    -0.271 NA
HETATM   34  H   UNL     1       3.422  12.505  93.630  1.00  0.00     0.127 HD
HETATM   35  H   UNL     1       2.279  12.994  94.532  1.00  0.00     0.127 HD
ENDBRANCH  26  31
ENDBRANCH  24  26
ENDBRANCH  19  22
ENDBRANCH  15  16
ENDBRANCH  11  14
ENDBRANCH   7   8
ENDBRANCH   2   7
TORSDOF 9
ENDMDL
MODEL 4
REMARK VINA RESULT:      -6.3      2.376     12.341
REMARK  9 active torsions:
REMARK  status: ('A' for Active; 'I' for Inactive)
REMARK    1  A    between atoms: O_2  and  C_17 
REMARK    2  A    between atoms: N_5  and  C_10 
REMARK    3  A    between atoms: N_6  and  C_14 
REMARK       I    between atoms: N_6  and  C_23 
REMARK       I    between atoms: N_7  and  C_22 
REMARK    4  A    between atoms: C_10  and  C_13 
REMARK    5  A    between atoms: C_14  and  C_17 
REMARK    6  A    between atoms: C_14  and  C_22 
REMARK    7  A    between atoms: C_20  and  C_25 
REMARK    8  A    between atoms: C_23  and  C_24 
REMARK    9  A    between atoms: C_28  and  C_31 
ROOT
HETATM    1  O   UNL     1       2.973  14.923  94.115  1.00  0.00    -0.388 OA
HETATM    2  N   UNL     1       2.603  14.767  91.297  1.00  0.00     0.096 N 
HETATM    3  C   UNL     1       1.668  14.124  92.231  1.00  0.00     0.299 C 
HETATM    4  C   UNL     1       3.944  14.834  91.894  1.00  0.00     0.299 C 
HETATM    5  C   UNL     1       1.659  14.882  93.556  1.00  0.00     0.198 C 
HETATM    6  C   UNL     1       3.882  15.574  93.226  1.00  0.00     0.198 C 
ENDROOT
BRANCH   2   7
HETATM    7  C   UNL     1       2.636  14.050  90.023  1.00  0.00     0.311 C 
BRANCH   7   8
HETATM    8  C   UNL     1       3.644  12.952  90.015  1.00  0.00    -0.030 A 
HETATM    9  C   UNL     1       4.840  13.109  89.312  1.00  0.00     0.010 A 
HETATM   10  C   UNL     1       5.783  12.082  89.302  1.00  0.00     0.021 A 
HETATM   11  C   UNL     1       5.531  10.899  89.997  1.00  0.00     0.018 A 
HETATM   12  C   UNL     1       4.338  10.741  90.699  1.00  0.00     0.021 A 
HETATM   13  C   UNL     1       3.394  11.768  90.708  1.00  0.00     0.010 A 
BRANCH  11  14
HETATM   14  C   UNL     1       6.499   9.846  89.988  1.00  0.00    -0.061 C 
HETATM   15  C   UNL     1       7.313   8.961  89.981  1.00  0.00    -0.061 C 
BRANCH  15  16
HETATM   16  C   UNL     1       8.280   7.908  89.973  1.00  0.00     0.018 A 
HETATM   17  C   UNL     1       8.937   7.575  88.787  1.00  0.00     0.022 A 
HETATM   18  C   UNL     1       9.883   6.550  88.780  1.00  0.00     0.018 A 
HETATM   19  C   UNL     1      10.150   5.881  89.956  1.00  0.00     0.032 A 
HETATM   20  C   UNL     1       9.514   6.190  91.140  1.00  0.00     0.018 A 
HETATM   21  C   UNL     1       8.569   7.216  91.149  1.00  0.00     0.022 A 
BRANCH  19  22
HETATM   22  C   UNL     1      11.156   4.787  89.947  1.00  0.00     0.252 C 
HETATM   23  O   UNL     1      11.345   4.155  88.910  1.00  0.00    -0.268 OA
HETATM   24  N   UNL     1      11.838   4.579  91.137  1.00  0.00    -0.342 N 
HETATM   25  H   UNL     1      11.647   5.158  91.946  1.00  0.00     0.163 HD
BRANCH  24  26
HETATM   26  C   UNL     1      12.860   3.573  91.280  1.00  0.00     0.199 C 
BRANCH  26  27
HETATM   27  C   UNL     1      14.176   4.136  91.831  1.00  0.00     0.145 C 
HETATM   28  C   UNL     1      15.228   3.055  92.050  1.00  0.00     0.042 C 
BRANCH  27  29
HETATM   29  O   UNL     1      14.694   5.111  90.925  1.00  0.00    -0.393 OA
HETATM   30  H   UNL     1      14.154   5.916  91.003  1.00  0.00     0.210 HD
ENDBRANCH  27  29
ENDBRANCH  26  27
BRANCH  26  31
HETATM   31  C   UNL     1      12.308   2.472  92.180  1.00  0.00     0.220 C 
HETATM   32  O   UNL     1      12.098   1.327  91.786  1.00  0.00    -0.278 OA
HETATM   33  N   UNL     1      12.044   2.925  93.450  1.00  0.00    -0.271 NA
HETATM   34  H   UNL     1      12.121   3.879  93.783  1.00  0.00     0.127 HD
HETATM   35  H   UNL     1      10.797   3.149  94.054  1.00  0.00     0.127 HD
ENDBRANCH  26  31
ENDBRANCH  24  26
ENDBRANCH  19  22
ENDBRANCH  15  16
ENDBRANCH  11  14
ENDBRANCH   7   8
ENDBRANCH   2   7
TORSDOF 9
ENDMDL
MODEL 5
REMARK VINA RESULT:      -5.7      1.784      2.597
REMARK  9 active torsions:
REMARK  status: ('A' for Active; 'I' for Inactive)
REMARK    1  A    between atoms: O_2  and  C_17 
REMARK    2  A    between atoms: N_5  and  C_10 
REMARK    3  A    between atoms: N_6  and  C_14 
REMARK       I    between atoms: N_6  and  C_23 
REMARK       I    between atoms: N_7  and  C_22 
REMARK    4  A    between atoms: C_10  and  C_13 
REMARK    5  A    between atoms: C_14  and  C_17 
REMARK    6  A    between atoms: C_14  and  C_22 
REMARK    7  A    between atoms: C_20  and  C_25 
REMARK    8  A    between atoms: C_23  and  C_24 
REMARK    9  A    between atoms: C_28  and  C_31 
ROOT
HETATM    1  O   UNL     1      15.588   4.628  93.614  1.00  0.00    -0.388 OA
HETATM    2  N   UNL     1      13.818   2.862  92.254  1.00  0.00     0.096 N 
HETATM    3  C   UNL     1      14.019   4.246  91.802  1.00  0.00     0.299 C 
HETATM    4  C   UNL     1      14.032   2.769  93.704  1.00  0.00     0.299 C 
HETATM    5  C   UNL     1      15.414   4.722  92.199  1.00  0.00     0.198 C 
HETATM    6  C   UNL     1      15.425   3.280  94.056  1.00  0.00     0.198 C 
ENDROOT
BRANCH   2   7
HETATM    7  C   UNL     1      12.483   2.388  91.894  1.00  0.00     0.311 C 
BRANCH   7   8
HETATM    8  C   UNL     1      11.465   3.476  91.932  1.00  0.00    -0.030 A 
HETATM    9  C   UNL     1      10.746   3.798  90.780  1.00  0.00     0.010 A 
HETATM   10  C   UNL     1       9.795   4.818  90.814  1.00  0.00     0.021 A 
HETATM   11  C   UNL     1       9.562   5.513  92.000  1.00  0.00     0.018 A 
HETATM   12  C   UNL     1      10.279   5.192  93.151  1.00  0.00     0.021 A 
HETATM   13  C   UNL     1      11.231   4.173  93.117  1.00  0.00     0.010 A 
BRANCH  11  14
HETATM   14  C   UNL     1       8.584   6.557  92.036  1.00  0.00    -0.061 C 
HETATM   15  C   UNL     1       7.763   7.435  92.066  1.00  0.00    -0.061 C 
BRANCH  15  16
HETATM   16  C   UNL     1       6.787   8.479  92.102  1.00  0.00     0.018 A 
HETATM   17  C   UNL     1       5.627   8.322  92.861  1.00  0.00     0.022 A 
HETATM   18  C   UNL     1       4.676   9.342  92.897  1.00  0.00     0.018 A 
HETATM   19  C   UNL     1       4.907  10.495  92.176  1.00  0.00     0.032 A 
HETATM   20  C   UNL     1       6.045  10.674  91.418  1.00  0.00     0.018 A 
HETATM   21  C   UNL     1       6.997   9.654  91.380  1.00  0.00     0.022 A 
BRANCH  19  22
HETATM   22  C   UNL     1       3.893  11.580  92.214  1.00  0.00     0.252 C 
HETATM   23  O   UNL     1       2.855  11.410  92.850  1.00  0.00    -0.268 OA
HETATM   24  N   UNL     1       4.219  12.742  91.527  1.00  0.00    -0.342 N 
HETATM   25  H   UNL     1       5.107  12.820  91.044  1.00  0.00     0.163 HD
BRANCH  24  26
HETATM   26  C   UNL     1       3.351  13.891  91.491  1.00  0.00     0.199 C 
BRANCH  26  27
HETATM   27  C   UNL     1       4.093  15.205  91.765  1.00  0.00     0.145 C 
HETATM   28  C   UNL     1       4.641  15.280  93.186  1.00  0.00     0.042 C 
BRANCH  27  29
HETATM   29  O   UNL     1       5.174  15.344  90.843  1.00  0.00    -0.393 OA
HETATM   30  H   UNL     1       4.880  15.017  89.976  1.00  0.00     0.210 HD
ENDBRANCH  27  29
ENDBRANCH  26  27
BRANCH  26  31
HETATM   31  C   UNL     1       2.667  13.915  90.128  1.00  0.00     0.220 C 
HETATM   32  O   UNL     1       1.500  14.268  89.970  1.00  0.00    -0.278 OA
HETATM   33  N   UNL     1       3.491  13.464  89.125  1.00  0.00    -0.271 NA
HETATM   34  H   UNL     1       4.424  13.082  89.232  1.00  0.00     0.127 HD
HETATM   35  H   UNL     1       3.420  12.254  88.417  1.00  0.00     0.127 HD
ENDBRANCH  26  31
ENDBRANCH  24  26
ENDBRANCH  19  22
ENDBRANCH  15  16
ENDBRANCH  11  14
ENDBRANCH   7   8
ENDBRANCH   2   7
TORSDOF 9
ENDMDL
MODEL 6
REMARK VINA RESULT:      -5.2      2.037     12.413
REMARK  9 active torsions:
REMARK  status: ('A' for Active; 'I' for Inactive)
REMARK    1  A    between atoms: O_2  and  C_17 
REMARK    2  A    between atoms: N_5  and  C_10 
REMARK    3  A    between atoms: N_6  and  C_14 
REMARK       I    between atoms: N_6  and  C_23 
REMARK       I    between atoms: N_7  and  C_22 
REMARK    4  A    between atoms: C_10  and  C_13 
REMARK    5  A    between atoms: C_14  and  C_17 
REMARK    6  A    between atoms: C_14  and  C_22 
REMARK    7  A    between atoms: C_20  and  C_25 
REMARK    8  A    between atoms: C_23  and  C_24 
REMARK    9  A    between atoms: C_28  and  C_31 
ROOT
HETATM    1  O   UNL     1       3.936  14.619  90.780  1.00  0.00    -0.388 OA
HETATM    2  N   UNL     1       2.347  12.419  91.640  1.00  0.00     0.096 N 
HETATM    3  C   UNL     1       2.975  13.335  92.602  1.00  0.00     0.299 C 
HETATM    4  C   UNL     1       3.148  12.354  90.410  1.00  0.00     0.299 C 
HETATM    5  C   UNL     1       3.147  14.713  91.968  1.00  0.00     0.198 C 
HETATM    6  C   UNL     1       3.316  13.754  89.827  1.00  0.00     0.198 C 
ENDROOT
BRANCH   2   7
HETATM    7  C   UNL     1       2.183  11.089  92.224  1.00  0.00     0.311 C 
BRANCH   7   8
HETATM    8  C   UNL     1       3.428  10.274  92.140  1.00  0.00    -0.030 A 
HETATM    9  C   UNL     1       4.525  10.594  92.942  1.00  0.00     0.010 A 
HETATM   10  C   UNL     1       5.691   9.833  92.864  1.00  0.00     0.021 A 
HETATM   11  C   UNL     1       5.760   8.753  91.985  1.00  0.00     0.018 A 
HETATM   12  C   UNL     1       4.666   8.433  91.184  1.00  0.00     0.021 A 
HETATM   13  C   UNL     1       3.500   9.193  91.262  1.00  0.00     0.010 A 
BRANCH  11  14
HETATM   14  C   UNL     1       6.956   7.972  91.906  1.00  0.00    -0.061 C 
HETATM   15  C   UNL     1       7.962   7.315  91.839  1.00  0.00    -0.061 C 
BRANCH  15  16
HETATM   16  C   UNL     1       9.157   6.535  91.759  1.00  0.00     0.018 A 
HETATM   17  C   UNL     1       9.849   6.201  92.924  1.00  0.00     0.022 A 
HETATM   18  C   UNL     1      11.014   5.438  92.846  1.00  0.00     0.018 A 
HETATM   19  C   UNL     1      11.460   5.026  91.608  1.00  0.00     0.032 A 
HETATM   20  C   UNL     1      10.794   5.344  90.443  1.00  0.00     0.018 A 
HETATM   21  C   UNL     1       9.629   6.107  90.519  1.00  0.00     0.022 A 
BRANCH  19  22
HETATM   22  C   UNL     1      12.702   4.215  91.526  1.00  0.00     0.252 C 
HETATM   23  O   UNL     1      13.027   3.723  90.448  1.00  0.00    -0.268 OA
HETATM   24  N   UNL     1      13.429   4.095  92.702  1.00  0.00    -0.342 N 
HETATM   25  H   UNL     1      13.112   4.550  93.550  1.00  0.00     0.163 HD
BRANCH  24  26
HETATM   26  C   UNL     1      14.667   3.361  92.777  1.00  0.00     0.199 C 
BRANCH  26  27
HETATM   27  C   UNL     1      15.672   3.992  93.749  1.00  0.00     0.145 C 
HETATM   28  C   UNL     1      17.016   3.271  93.749  1.00  0.00     0.042 C 
BRANCH  27  29
HETATM   29  O   UNL     1      15.881   5.360  93.399  1.00  0.00    -0.393 OA
HETATM   30  H   UNL     1      15.847   5.891  94.212  1.00  0.00     0.210 HD
ENDBRANCH  27  29
ENDBRANCH  26  27
BRANCH  26  31
HETATM   31  C   UNL     1      14.335   1.927  93.176  1.00  0.00     0.220 C 
HETATM   32  O   UNL     1      14.870   1.355  94.124  1.00  0.00    -0.278 OA
HETATM   33  N   UNL     1      13.411   1.355  92.336  1.00  0.00    -0.271 NA
HETATM   34  H   UNL     1      13.018   1.765  91.497  1.00  0.00     0.127 HD
HETATM   35  H   UNL     1      13.610   0.354  91.373  1.00  0.00     0.127 HD
ENDBRANCH  26  31
ENDBRANCH  24  26
ENDBRANCH  19  22
ENDBRANCH  15  16
ENDBRANCH  11  14
ENDBRANCH   7   8
ENDBRANCH   2   7
TORSDOF 9
ENDMDL
MODEL 7
REMARK VINA RESULT:      -5.1      2.196     12.345
REMARK  9 active torsions:
REMARK  status: ('A' for Active; 'I' for Inactive)
REMARK    1  A    between atoms: O_2  and  C_17 
REMARK    2  A    between atoms: N_5  and  C_10 
REMARK    3  A    between atoms: N_6  and  C_14 
REMARK       I    between atoms: N_6  and  C_23 
REMARK       I    between atoms: N_7  and  C_22 
REMARK    4  A    between atoms: C_10  and  C_13 
REMARK    5  A    between atoms: C_14  and  C_17 
REMARK    6  A    between atoms: C_14  and  C_22 
REMARK    7  A    between atoms: C_20  and  C_25 
REMARK    8  A    between atoms: C_23  and  C_24 
REMARK    9  A    between atoms: C_28  and  C_31 
ROOT
HETATM    1  O   UNL     1       4.852  15.275  90.409  1.00  0.00    -0.388 OA
HETATM    2  N   UNL     1       2.790  13.654  91.516  1.00  0.00     0.096 N 
HETATM    3  C   UNL     1       3.853  14.224  92.356  1.00  0.00     0.299 C 
HETATM    4  C   UNL     1       3.289  13.438  90.151  1.00  0.00     0.299 C 
HETATM    5  C   UNL     1       4.366  15.519  91.731  1.00  0.00     0.198 C 
HETATM    6  C   UNL     1       3.816  14.749  89.578  1.00  0.00     0.198 C 
ENDROOT
BRANCH   2   7
HETATM    7  C   UNL     1       2.290  12.406  92.091  1.00  0.00     0.311 C 
BRANCH   7   8
HETATM    8  C   UNL     1       3.331  11.340  92.126  1.00  0.00    -0.030 A 
HETATM    9  C   UNL     1       4.435  11.471  92.968  1.00  0.00     0.010 A 
HETATM   10  C   UNL     1       5.411  10.475  93.000  1.00  0.00     0.021 A 
HETATM   11  C   UNL     1       5.280   9.347  92.191  1.00  0.00     0.018 A 
HETATM   12  C   UNL     1       4.177   9.214  91.349  1.00  0.00     0.021 A 
HETATM   13  C   UNL     1       3.202  10.211  91.316  1.00  0.00     0.010 A 
BRANCH  11  14
HETATM   14  C   UNL     1       6.280   8.324  92.225  1.00  0.00    -0.061 C 
HETATM   15  C   UNL     1       7.120   7.464  92.253  1.00  0.00    -0.061 C 
BRANCH  15  16
HETATM   16  C   UNL     1       8.120   6.443  92.287  1.00  0.00     0.018 A 
HETATM   17  C   UNL     1       9.122   6.482  93.257  1.00  0.00     0.022 A 
HETATM   18  C   UNL     1      10.096   5.483  93.291  1.00  0.00     0.018 A 
HETATM   19  C   UNL     1      10.045   4.469  92.358  1.00  0.00     0.032 A 
HETATM   20  C   UNL     1       9.064   4.409  91.390  1.00  0.00     0.018 A 
HETATM   21  C   UNL     1       8.090   5.407  91.354  1.00  0.00     0.022 A 
BRANCH  19  22
HETATM   22  C   UNL     1      11.083   3.407  92.394  1.00  0.00     0.252 C 
HETATM   23  O   UNL     1      10.740   2.237  92.547  1.00  0.00    -0.268 OA
HETATM   24  N   UNL     1      12.393   3.832  92.223  1.00  0.00    -0.342 N 
HETATM   25  H   UNL     1      12.599   4.813  92.076  1.00  0.00     0.163 HD
BRANCH  24  26
HETATM   26  C   UNL     1      13.509   2.920  92.210  1.00  0.00     0.199 C 
BRANCH  26  27
HETATM   27  C   UNL     1      14.506   3.218  91.083  1.00  0.00     0.145 C 
HETATM   28  C   UNL     1      14.405   4.653  90.579  1.00  0.00     0.042 C 
BRANCH  27  29
HETATM   29  O   UNL     1      15.835   2.982  91.547  1.00  0.00    -0.393 OA
HETATM   30  H   UNL     1      15.907   2.047  91.802  1.00  0.00     0.210 HD
ENDBRANCH  27  29
ENDBRANCH  26  27
BRANCH  26  31
HETATM   31  C   UNL     1      14.181   2.986  93.577  1.00  0.00     0.220 C 
HETATM   32  O   UNL     1      14.538   4.041  94.098  1.00  0.00    -0.278 OA
HETATM   33  N   UNL     1      14.369   1.740  94.124  1.00  0.00    -0.271 NA
HETATM   34  H   UNL     1      14.169   0.848  93.685  1.00  0.00     0.127 HD
HETATM   35  H   UNL     1      15.570   1.032  94.288  1.00  0.00     0.127 HD
ENDBRANCH  26  31
ENDBRANCH  24  26
ENDBRANCH  19  22
ENDBRANCH  15  16
ENDBRANCH  11  14
ENDBRANCH   7   8
ENDBRANCH   2   7
TORSDOF 9
ENDMDL
MODEL 8
REMARK VINA RESULT:      -4.4      1.867     12.503
REMARK  9 active torsions:
REMARK  status: ('A' for Active; 'I' for Inactive)
REMARK    1  A    between atoms: O_2  and  C_17 
REMARK    2  A    between atoms: N_5  and  C_10 
REMARK    3  A    between atoms: N_6  and  C_14 
REMARK       I    between atoms: N_6  and  C_23 
REMARK       I    between atoms: N_7  and  C_22 
REMARK    4  A    between atoms: C_10  and  C_13 
REMARK    5  A    between atoms: C_14  and  C_17 
REMARK    6  A    between atoms: C_14  and  C_22 
REMARK    7  A    between atoms: C_20  and  C_25 
REMARK    8  A    between atoms: C_23  and  C_24 
REMARK    9  A    between atoms: C_28  and  C_31 
ROOT
HETATM    1  O   UNL     1       2.031  13.573  92.896  1.00  0.00    -0.388 OA
HETATM    2  N   UNL     1       3.602  13.488  90.524  1.00  0.00     0.096 N 
HETATM    3  C   UNL     1       2.144  13.314  90.486  1.00  0.00     0.299 C 
HETATM    4  C   UNL     1       4.131  13.022  91.814  1.00  0.00     0.299 C 
HETATM    5  C   UNL     1       1.504  14.053  91.658  1.00  0.00     0.198 C 
HETATM    6  C   UNL     1       3.445  13.767  92.954  1.00  0.00     0.198 C 
ENDROOT
BRANCH   2   7
HETATM    7  C   UNL     1       4.238  12.778  89.415  1.00  0.00     0.311 C 
BRANCH   7   8
HETATM    8  C   UNL     1       5.186  11.727  89.883  1.00  0.00    -0.030 A 
HETATM    9  C   UNL     1       6.511  11.740  89.445  1.00  0.00     0.010 A 
HETATM   10  C   UNL     1       7.399  10.756  89.880  1.00  0.00     0.021 A 
HETATM   11  C   UNL     1       6.961   9.760  90.753  1.00  0.00     0.018 A 
HETATM   12  C   UNL     1       5.638   9.746  91.191  1.00  0.00     0.021 A 
HETATM   13  C   UNL     1       4.750  10.730  90.755  1.00  0.00     0.010 A 
BRANCH  11  14
HETATM   14  C   UNL     1       7.872   8.752  91.201  1.00  0.00    -0.061 C 
HETATM   15  C   UNL     1       8.638   7.904  91.576  1.00  0.00    -0.061 C 
BRANCH  15  16
HETATM   16  C   UNL     1       9.549   6.897  92.023  1.00  0.00     0.018 A 
HETATM   17  C   UNL     1      10.138   6.033  91.100  1.00  0.00     0.022 A 
HETATM   18  C   UNL     1      11.029   5.052  91.535  1.00  0.00     0.018 A 
HETATM   19  C   UNL     1      11.311   4.957  92.882  1.00  0.00     0.032 A 
HETATM   20  C   UNL     1      10.741   5.799  93.814  1.00  0.00     0.018 A 
HETATM   21  C   UNL     1       9.850   6.781  93.380  1.00  0.00     0.022 A 
BRANCH  19  22
HETATM   22  C   UNL     1      12.258   3.911  93.346  1.00  0.00     0.252 C 
HETATM   23  O   UNL     1      11.822   2.812  93.681  1.00  0.00    -0.268 OA
HETATM   24  N   UNL     1      13.601   4.261  93.340  1.00  0.00    -0.342 N 
HETATM   25  H   UNL     1      13.890   5.180  93.025  1.00  0.00     0.163 HD
BRANCH  24  26
HETATM   26  C   UNL     1      14.642   3.348  93.738  1.00  0.00     0.199 C 
BRANCH  26  27
HETATM   27  C   UNL     1      14.906   2.256  92.693  1.00  0.00     0.145 C 
HETATM   28  C   UNL     1      14.449   0.879  93.159  1.00  0.00     0.042 C 
BRANCH  27  29
HETATM   29  O   UNL     1      14.229   2.583  91.480  1.00  0.00    -0.393 OA
HETATM   30  H   UNL     1      14.052   1.758  90.997  1.00  0.00     0.210 HD
ENDBRANCH  27  29
ENDBRANCH  26  27
BRANCH  26  31
HETATM   31  C   UNL     1      15.899   4.166  94.014  1.00  0.00     0.220 C 
HETATM   32  O   UNL     1      15.890   5.391  94.124  1.00  0.00    -0.278 OA
HETATM   33  N   UNL     1      17.025   3.382  94.083  1.00  0.00    -0.271 NA
HETATM   34  H   UNL     1      17.081   2.385  93.909  1.00  0.00     0.127 HD
HETATM   35  H   UNL     1      18.077   3.283  93.159  1.00  0.00     0.127 HD
ENDBRANCH  26  31
ENDBRANCH  24  26
ENDBRANCH  19  22
ENDBRANCH  15  16
ENDBRANCH  11  14
ENDBRANCH   7   8
ENDBRANCH   2   7
TORSDOF 9
ENDMDL
