MODEL 1
REMARK VINA RESULT:      -6.2      0.000      0.000
REMARK  12 active torsions:
REMARK  status: ('A' for Active; 'I' for Inactive)
REMARK    1  A    between atoms: O_2  and  C_16 
REMARK    2  A    between atoms: N_5  and  C_9 
REMARK    3  A    between atoms: N_6  and  C_13 
REMARK       I    between atoms: N_6  and  C_22 
REMARK    4  A    between atoms: C_9  and  C_12 
REMARK    5  A    between atoms: C_13  and  C_16 
REMARK    6  A    between atoms: C_13  and  C_21 
REMARK    7  A    between atoms: C_19  and  C_24 
REMARK    8  A    between atoms: C_21  and  C_33 
REMARK    9  A    between atoms: C_22  and  C_23 
REMARK   10  A    between atoms: C_27  and  C_30 
REMARK   11  A    between atoms: C_33  and  C_34 
REMARK   12  A    between atoms: C_34  and  C_35 
ROOT
HETATM    1  O   UNL     1      16.547   4.397  94.124  1.00  0.00    -0.350 OA
HETATM    2  N   UNL     1      14.719   2.750  92.693  1.00  0.00     0.147 N 
HETATM    3  C   UNL     1      14.589   4.214  92.702  1.00  0.00     0.283 C 
HETATM    4  C   UNL     1      15.354   2.294  93.937  1.00  0.00     0.283 C 
HETATM    5  C   UNL     1      15.960   4.854  92.904  1.00  0.00     0.178 C 
HETATM    6  C   UNL     1      16.706   2.978  94.110  1.00  0.00     0.178 C 
ENDROOT
BRANCH   2   7
HETATM    7  C   UNL     1      13.415   2.116  92.511  1.00  0.00     0.277 C 
BRANCH   7   8
HETATM    8  C   UNL     1      12.306   3.109  92.434  1.00  0.00     0.011 A 
HETATM    9  C   UNL     1      11.906   3.797  93.580  1.00  0.00    -0.002 A 
HETATM   10  C   UNL     1      10.867   4.725  93.510  1.00  0.00     0.008 A 
HETATM   11  C   UNL     1      10.230   4.966  92.293  1.00  0.00     0.042 A 
HETATM   12  C   UNL     1      10.629   4.280  91.147  1.00  0.00     0.008 A 
HETATM   13  C   UNL     1      11.668   3.352  91.218  1.00  0.00    -0.002 A 
BRANCH  11  14
HETATM   14  C   UNL     1       9.166   5.920  92.220  1.00  0.00    -0.059 C 
HETATM   15  C   UNL     1       8.272   6.721  92.158  1.00  0.00    -0.059 C 
BRANCH  15  16
HETATM   16  C   UNL     1       7.208   7.673  92.085  1.00  0.00     0.042 A 
HETATM   17  C   UNL     1       7.241   8.818  92.882  1.00  0.00     0.008 A 
HETATM   18  C   UNL     1       6.205   9.748  92.809  1.00  0.00     0.005 A 
HETATM   19  C   UNL     1       5.159   9.514  91.940  1.00  0.00     0.056 A 
HETATM   20  C   UNL     1       5.103   8.390  91.142  1.00  0.00     0.005 A 
HETATM   21  C   UNL     1       6.139   7.459  91.215  1.00  0.00     0.008 A 
BRANCH  19  22
HETATM   22  C   UNL     1       4.054  10.504  91.863  1.00  0.00     0.254 C 
HETATM   23  O   UNL     1       2.892  10.111  91.915  1.00  0.00    -0.268 OA
HETATM   24  N   UNL     1       4.436  11.835  91.761  1.00  0.00    -0.335 N 
HETATM   25  HN  UNL     1       5.417  12.087  91.750  1.00  0.00     0.164 HD
BRANCH  24  26
HETATM   26  C   UNL     1       3.482  12.913  91.702  1.00  0.00     0.166 C 
BRANCH  26  27
HETATM   27  C   UNL     1       3.832  14.068  92.649  1.00  0.00     0.138 C 
HETATM   28  C   UNL     1       2.595  14.732  93.242  1.00  0.00     0.034 C 
BRANCH  27  29
HETATM   29  O   UNL     1       4.652  13.582  93.712  1.00  0.00    -0.383 OA
HETATM   30  H   UNL     1       4.150  12.909  94.201  1.00  0.00     0.210 HD
ENDBRANCH  27  29
ENDBRANCH  26  27
BRANCH  26  31
HETATM   31  C   UNL     1       3.404  13.387  90.255  1.00  0.00     0.181 C 
HETATM   32  O   UNL     1       2.488  14.087  89.828  1.00  0.00    -0.294 OA
BRANCH  31  33
HETATM   33  C   UNL     1       4.779  14.103  89.780  1.00  0.00     0.138 C 
BRANCH  33  34
HETATM   34  C   UNL     1       5.205  13.227  88.758  1.00  0.00     0.208 C 
HETATM   35  O   UNL     1       5.127  13.650  87.627  1.00  0.00    -0.289 OA
BRANCH  34  36
HETATM   36  C   UNL     1       5.960  12.088  88.823  1.00  0.00     0.194 C 
HETATM   37  O   UNL     1       5.585  10.746  88.691  1.00  0.00    -0.185 OA
ENDBRANCH  34  36
ENDBRANCH  33  34
ENDBRANCH  31  33
ENDBRANCH  26  31
ENDBRANCH  24  26
ENDBRANCH  19  22
ENDBRANCH  15  16
ENDBRANCH  11  14
ENDBRANCH   7   8
ENDBRANCH   2   7
TORSDOF 12
ENDMDL
MODEL 2
REMARK VINA RESULT:      -5.3      2.721     12.680
REMARK  12 active torsions:
REMARK  status: ('A' for Active; 'I' for Inactive)
REMARK    1  A    between atoms: O_2  and  C_16 
REMARK    2  A    between atoms: N_5  and  C_9 
REMARK    3  A    between atoms: N_6  and  C_13 
REMARK       I    between atoms: N_6  and  C_22 
REMARK    4  A    between atoms: C_9  and  C_12 
REMARK    5  A    between atoms: C_13  and  C_16 
REMARK    6  A    between atoms: C_13  and  C_21 
REMARK    7  A    between atoms: C_19  and  C_24 
REMARK    8  A    between atoms: C_21  and  C_33 
REMARK    9  A    between atoms: C_22  and  C_23 
REMARK   10  A    between atoms: C_27  and  C_30 
REMARK   11  A    between atoms: C_33  and  C_34 
REMARK   12  A    between atoms: C_34  and  C_35 
ROOT
HETATM    1  O   UNL     1       3.026  14.712  93.809  1.00  0.00    -0.350 OA
HETATM    2  N   UNL     1       2.793  14.637  90.973  1.00  0.00     0.147 N 
HETATM    3  C   UNL     1       1.770  14.042  91.844  1.00  0.00     0.283 C 
HETATM    4  C   UNL     1       4.103  14.601  91.638  1.00  0.00     0.283 C 
HETATM    5  C   UNL     1       1.743  14.773  93.184  1.00  0.00     0.178 C 
HETATM    6  C   UNL     1       4.022  15.316  92.982  1.00  0.00     0.178 C 
ENDROOT
BRANCH   2   7
HETATM    7  C   UNL     1       2.843  13.946  89.686  1.00  0.00     0.277 C 
BRANCH   7   8
HETATM    8  C   UNL     1       3.823  12.822  89.683  1.00  0.00     0.011 A 
HETATM    9  C   UNL     1       5.095  13.009  89.141  1.00  0.00    -0.002 A 
HETATM   10  C   UNL     1       6.012  11.957  89.136  1.00  0.00     0.008 A 
HETATM   11  C   UNL     1       5.656  10.721  89.675  1.00  0.00     0.042 A 
HETATM   12  C   UNL     1       4.387  10.534  90.217  1.00  0.00     0.008 A 
HETATM   13  C   UNL     1       3.469  11.585  90.222  1.00  0.00    -0.002 A 
BRANCH  11  14
HETATM   14  C   UNL     1       6.597   9.643  89.671  1.00  0.00    -0.059 C 
HETATM   15  C   UNL     1       7.389   8.738  89.668  1.00  0.00    -0.059 C 
BRANCH  15  16
HETATM   16  C   UNL     1       8.330   7.662  89.664  1.00  0.00     0.042 A 
HETATM   17  C   UNL     1       9.582   7.834  89.074  1.00  0.00     0.008 A 
HETATM   18  C   UNL     1      10.501   6.785  89.073  1.00  0.00     0.005 A 
HETATM   19  C   UNL     1      10.148   5.589  89.662  1.00  0.00     0.056 A 
HETATM   20  C   UNL     1       8.917   5.394  90.252  1.00  0.00     0.005 A 
HETATM   21  C   UNL     1       7.997   6.442  90.253  1.00  0.00     0.008 A 
BRANCH  19  22
HETATM   22  C   UNL     1      11.127   4.470  89.659  1.00  0.00     0.254 C 
HETATM   23  O   UNL     1      11.280   3.810  88.635  1.00  0.00    -0.268 OA
HETATM   24  N   UNL     1      11.827   4.272  90.841  1.00  0.00    -0.335 N 
HETATM   25  HN  UNL     1      11.666   4.874  91.640  1.00  0.00     0.164 HD
BRANCH  24  26
HETATM   26  C   UNL     1      12.827   3.245  90.987  1.00  0.00     0.166 C 
BRANCH  26  27
HETATM   27  C   UNL     1      14.252   3.767  90.765  1.00  0.00     0.138 C 
HETATM   28  C   UNL     1      14.881   3.220  89.488  1.00  0.00     0.034 C 
BRANCH  27  29
HETATM   29  O   UNL     1      14.233   5.192  90.698  1.00  0.00    -0.383 OA
HETATM   30  H   UNL     1      15.151   5.511  90.722  1.00  0.00     0.210 HD
ENDBRANCH  27  29
ENDBRANCH  26  27
BRANCH  26  31
HETATM   31  C   UNL     1      12.670   2.637  92.377  1.00  0.00     0.181 C 
HETATM   32  O   UNL     1      11.729   1.908  92.687  1.00  0.00    -0.294 OA
BRANCH  31  33
HETATM   33  C   UNL     1      14.014   1.866  92.853  1.00  0.00     0.138 C 
BRANCH  33  34
HETATM   34  C   UNL     1      14.662   2.879  93.595  1.00  0.00     0.208 C 
HETATM   35  O   UNL     1      13.947   3.734  94.065  1.00  0.00    -0.289 OA
BRANCH  34  36
HETATM   36  C   UNL     1      15.923   2.922  94.124  1.00  0.00     0.194 C 
HETATM   37  O   UNL     1      17.171   2.864  93.494  1.00  0.00    -0.185 OA
ENDBRANCH  34  36
ENDBRANCH  33  34
ENDBRANCH  31  33
ENDBRANCH  26  31
ENDBRANCH  24  26
ENDBRANCH  19  22
ENDBRANCH  15  16
ENDBRANCH  11  14
ENDBRANCH   7   8
ENDBRANCH   2   7
TORSDOF 12
ENDMDL
MODEL 3
REMARK VINA RESULT:      -5.0      1.329      2.063
REMARK  12 active torsions:
REMARK  status: ('A' for Active; 'I' for Inactive)
REMARK    1  A    between atoms: O_2  and  C_16 
REMARK    2  A    between atoms: N_5  and  C_9 
REMARK    3  A    between atoms: N_6  and  C_13 
REMARK       I    between atoms: N_6  and  C_22 
REMARK    4  A    between atoms: C_9  and  C_12 
REMARK    5  A    between atoms: C_13  and  C_16 
REMARK    6  A    between atoms: C_13  and  C_21 
REMARK    7  A    between atoms: C_19  and  C_24 
REMARK    8  A    between atoms: C_21  and  C_33 
REMARK    9  A    between atoms: C_22  and  C_23 
REMARK   10  A    between atoms: C_27  and  C_30 
REMARK   11  A    between atoms: C_33  and  C_34 
REMARK   12  A    between atoms: C_34  and  C_35 
ROOT
HETATM    1  O   UNL     1      16.481   3.147  93.257  1.00  0.00    -0.350 OA
HETATM    2  N   UNL     1      13.670   2.984  92.837  1.00  0.00     0.147 N 
HETATM    3  C   UNL     1      14.434   1.847  93.370  1.00  0.00     0.283 C 
HETATM    4  C   UNL     1      14.530   3.809  91.977  1.00  0.00     0.283 C 
HETATM    5  C   UNL     1      15.662   2.356  94.121  1.00  0.00     0.178 C 
HETATM    6  C   UNL     1      15.755   4.271  92.759  1.00  0.00     0.178 C 
ENDROOT
BRANCH   2   7
HETATM    7  C   UNL     1      12.494   2.519  92.104  1.00  0.00     0.277 C 
BRANCH   7   8
HETATM    8  C   UNL     1      11.359   3.483  92.181  1.00  0.00     0.011 A 
HETATM    9  C   UNL     1      10.450   3.574  91.126  1.00  0.00    -0.002 A 
HETATM   10  C   UNL     1       9.389   4.477  91.197  1.00  0.00     0.008 A 
HETATM   11  C   UNL     1       9.237   5.286  92.322  1.00  0.00     0.042 A 
HETATM   12  C   UNL     1      10.144   5.196  93.376  1.00  0.00     0.008 A 
HETATM   13  C   UNL     1      11.205   4.294  93.306  1.00  0.00    -0.002 A 
BRANCH  11  14
HETATM   14  C   UNL     1       8.147   6.211  92.395  1.00  0.00    -0.059 C 
HETATM   15  C   UNL     1       7.232   6.988  92.455  1.00  0.00    -0.059 C 
BRANCH  15  16
HETATM   16  C   UNL     1       6.143   7.912  92.527  1.00  0.00     0.042 A 
HETATM   17  C   UNL     1       5.802   8.674  91.410  1.00  0.00     0.008 A 
HETATM   18  C   UNL     1       4.738   9.573  91.480  1.00  0.00     0.005 A 
HETATM   19  C   UNL     1       4.039   9.689  92.663  1.00  0.00     0.056 A 
HETATM   20  C   UNL     1       4.356   8.947  93.781  1.00  0.00     0.005 A 
HETATM   21  C   UNL     1       5.420   8.047  93.713  1.00  0.00     0.008 A 
BRANCH  19  22
HETATM   22  C   UNL     1       2.906  10.648  92.737  1.00  0.00     0.254 C 
HETATM   23  O   UNL     1       1.772  10.223  92.945  1.00  0.00    -0.268 OA
HETATM   24  N   UNL     1       3.234  11.988  92.585  1.00  0.00    -0.335 N 
HETATM   25  HN  UNL     1       4.197  12.268  92.441  1.00  0.00     0.164 HD
BRANCH  24  26
HETATM   26  C   UNL     1       2.251  13.040  92.656  1.00  0.00     0.166 C 
BRANCH  26  27
HETATM   27  C   UNL     1       2.438  13.945  93.880  1.00  0.00     0.138 C 
HETATM   28  C   UNL     1       3.899  14.313  94.117  1.00  0.00     0.034 C 
BRANCH  27  29
HETATM   29  O   UNL     1       1.681  15.143  93.708  1.00  0.00    -0.383 OA
HETATM   30  H   UNL     1       1.353  15.168  92.793  1.00  0.00     0.210 HD
ENDBRANCH  27  29
ENDBRANCH  26  27
BRANCH  26  31
HETATM   31  C   UNL     1       2.329  13.838  91.359  1.00  0.00     0.181 C 
HETATM   32  O   UNL     1       2.828  14.960  91.292  1.00  0.00    -0.294 OA
BRANCH  31  33
HETATM   33  C   UNL     1       2.993  12.974  90.159  1.00  0.00     0.138 C 
BRANCH  33  34
HETATM   34  C   UNL     1       4.134  13.752  89.862  1.00  0.00     0.208 C 
HETATM   35  O   UNL     1       4.810  14.088  90.807  1.00  0.00    -0.289 OA
BRANCH  34  36
HETATM   36  C   UNL     1       4.781  13.960  88.675  1.00  0.00     0.194 C 
HETATM   37  O   UNL     1       5.234  13.045  87.718  1.00  0.00    -0.185 OA
ENDBRANCH  34  36
ENDBRANCH  33  34
ENDBRANCH  31  33
ENDBRANCH  26  31
ENDBRANCH  24  26
ENDBRANCH  19  22
ENDBRANCH  15  16
ENDBRANCH  11  14
ENDBRANCH   7   8
ENDBRANCH   2   7
TORSDOF 12
ENDMDL
MODEL 4
REMARK VINA RESULT:      -3.3      2.699     12.081
REMARK  12 active torsions:
REMARK  status: ('A' for Active; 'I' for Inactive)
REMARK    1  A    between atoms: O_2  and  C_16 
REMARK    2  A    between atoms: N_5  and  C_9 
REMARK    3  A    between atoms: N_6  and  C_13 
REMARK       I    between atoms: N_6  and  C_22 
REMARK    4  A    between atoms: C_9  and  C_12 
REMARK    5  A    between atoms: C_13  and  C_16 
REMARK    6  A    between atoms: C_13  and  C_21 
REMARK    7  A    between atoms: C_19  and  C_24 
REMARK    8  A    between atoms: C_21  and  C_33 
REMARK    9  A    between atoms: C_22  and  C_23 
REMARK   10  A    between atoms: C_27  and  C_30 
REMARK   11  A    between atoms: C_33  and  C_34 
REMARK   12  A    between atoms: C_34  and  C_35 
ROOT
HETATM    1  O   UNL     1       3.177  15.460  93.746  1.00  0.00    -0.350 OA
HETATM    2  N   UNL     1       1.690  13.342  92.560  1.00  0.00     0.147 N 
HETATM    3  C   UNL     1       1.467  13.750  93.954  1.00  0.00     0.283 C 
HETATM    4  C   UNL     1       3.081  13.617  92.171  1.00  0.00     0.283 C 
HETATM    5  C   UNL     1       1.819  15.226  94.123  1.00  0.00     0.178 C 
HETATM    6  C   UNL     1       3.395  15.095  92.383  1.00  0.00     0.178 C 
ENDROOT
BRANCH   2   7
HETATM    7  C   UNL     1       1.370  11.928  92.377  1.00  0.00     0.277 C 
BRANCH   7   8
HETATM    8  C   UNL     1       2.576  11.056  92.463  1.00  0.00     0.011 A 
HETATM    9  C   UNL     1       3.102  10.715  93.709  1.00  0.00    -0.002 A 
HETATM   10  C   UNL     1       4.232   9.902  93.791  1.00  0.00     0.008 A 
HETATM   11  C   UNL     1       4.834   9.428  92.626  1.00  0.00     0.042 A 
HETATM   12  C   UNL     1       4.310   9.767  91.380  1.00  0.00     0.008 A 
HETATM   13  C   UNL     1       3.180  10.581  91.298  1.00  0.00    -0.002 A 
BRANCH  11  14
HETATM   14  C   UNL     1       5.992   8.591  92.710  1.00  0.00    -0.059 C 
HETATM   15  C   UNL     1       6.965   7.889  92.781  1.00  0.00    -0.059 C 
BRANCH  15  16
HETATM   16  C   UNL     1       8.122   7.053  92.865  1.00  0.00     0.042 A 
HETATM   17  C   UNL     1       8.443   6.199  91.810  1.00  0.00     0.008 A 
HETATM   18  C   UNL     1       9.573   5.386  91.892  1.00  0.00     0.005 A 
HETATM   19  C   UNL     1      10.357   5.446  93.025  1.00  0.00     0.056 A 
HETATM   20  C   UNL     1      10.061   6.281  94.082  1.00  0.00     0.005 A 
HETATM   21  C   UNL     1       8.931   7.095  94.001  1.00  0.00     0.008 A 
BRANCH  19  22
HETATM   22  C   UNL     1      11.560   4.578  93.113  1.00  0.00     0.254 C 
HETATM   23  O   UNL     1      11.566   3.640  93.906  1.00  0.00    -0.268 OA
HETATM   24  N   UNL     1      12.600   4.891  92.249  1.00  0.00    -0.335 N 
HETATM   25  HN  UNL     1      12.513   5.666  91.602  1.00  0.00     0.164 HD
BRANCH  24  26
HETATM   26  C   UNL     1      13.822   4.129  92.197  1.00  0.00     0.166 C 
BRANCH  26  27
HETATM   27  C   UNL     1      14.344   3.751  93.589  1.00  0.00     0.138 C 
HETATM   28  C   UNL     1      15.188   2.481  93.570  1.00  0.00     0.034 C 
BRANCH  27  29
HETATM   29  O   UNL     1      15.130   4.822  94.111  1.00  0.00    -0.383 OA
HETATM   30  H   UNL     1      15.153   5.534  93.449  1.00  0.00     0.210 HD
ENDBRANCH  27  29
ENDBRANCH  26  27
BRANCH  26  31
HETATM   31  C   UNL     1      13.562   2.890  91.347  1.00  0.00     0.181 C 
HETATM   32  O   UNL     1      12.654   2.095  91.581  1.00  0.00    -0.294 OA
BRANCH  31  33
HETATM   33  C   UNL     1      13.449   3.254  89.771  1.00  0.00     0.138 C 
BRANCH  33  34
HETATM   34  C   UNL     1      12.088   3.619  89.671  1.00  0.00     0.208 C 
HETATM   35  O   UNL     1      11.861   4.801  89.551  1.00  0.00    -0.289 OA
BRANCH  34  36
HETATM   36  C   UNL     1      10.984   2.859  89.399  1.00  0.00     0.194 C 
HETATM   37  O   UNL     1       9.987   3.026  88.431  1.00  0.00    -0.185 OA
ENDBRANCH  34  36
ENDBRANCH  33  34
ENDBRANCH  31  33
ENDBRANCH  26  31
ENDBRANCH  24  26
ENDBRANCH  19  22
ENDBRANCH  15  16
ENDBRANCH  11  14
ENDBRANCH   7   8
ENDBRANCH   2   7
TORSDOF 12
ENDMDL
