MODEL 1
REMARK VINA RESULT:      -7.5      0.000      0.000
REMARK  9 active torsions:
REMARK  status: ('A' for Active; 'I' for Inactive)
REMARK    1  A    between atoms: N_3  and  C_6 
REMARK    2  A    between atoms: C_6  and  C_9 
REMARK    3  A    between atoms: C_14  and  C_17 
REMARK       I    between atoms: N_26  and  C_15 
REMARK    4  A    between atoms: C_15  and  C_16 
REMARK    5  A    between atoms: C_20  and  C_23 
REMARK    6  A    between atoms: OG1_24  and  CB_28 
REMARK    7  A    between atoms: N_26  and  CA_27 
REMARK    8  A    between atoms: CA_27  and  CB_28 
REMARK    9  A    between atoms: CA_27  and  C_30 
ROOT
HETATM    1  O   UNK A   0       1.916   8.052  87.829  1.00  0.00    -0.388 OA
HETATM    2  N   UNK A   0       4.710   7.534  87.675  1.00  0.00     0.096 N 
HETATM    3  C   UNK A   0       4.187   8.904  87.770  1.00  0.00     0.299 C 
HETATM    4  C   UNK A   0       3.730   6.666  87.009  1.00  0.00     0.299 C 
HETATM    5  C   UNK A   0       2.849   8.897  88.504  1.00  0.00     0.198 C 
HETATM    6  C   UNK A   0       2.403   6.712  87.760  1.00  0.00     0.198 C 
ENDROOT
BRANCH   2   7
HETATM    7  C   UNK A   0       5.988   7.516  86.965  1.00  0.00     0.311 C 
BRANCH   7   8
HETATM    8  C   UNK A   0       7.083   6.918  87.781  1.00  0.00    -0.030 A 
HETATM    9  C   UNK A   0       6.859   6.600  89.121  1.00  0.00     0.010 A 
HETATM   10  C   UNK A   0       7.883   6.043  89.887  1.00  0.00     0.021 A 
HETATM   11  C   UNK A   0       9.130   5.801  89.311  1.00  0.00     0.018 A 
HETATM   12  C   UNK A   0       9.355   6.118  87.973  1.00  0.00     0.021 A 
HETATM   13  C   UNK A   0       8.331   6.676  87.207  1.00  0.00     0.010 A 
BRANCH  11  14
HETATM   14  C   UNK A   0      10.180   5.227  90.095  1.00  0.00    -0.061 C 
HETATM   15  C   UNK A   0      11.062   4.744  90.754  1.00  0.00    -0.061 C 
BRANCH  15  16
HETATM   16  C   UNK A   0      12.111   4.170  91.537  1.00  0.00     0.018 A 
HETATM   17  C   UNK A   0      11.871   3.803  92.862  1.00  0.00     0.022 A 
HETATM   18  C   UNK A   0      12.894   3.240  93.624  1.00  0.00     0.018 A 
HETATM   19  C   UNK A   0      14.133   3.057  93.047  1.00  0.00     0.032 A 
HETATM   20  C   UNK A   0      14.396   3.413  91.740  1.00  0.00     0.018 A 
HETATM   21  C   UNK A   0      13.373   3.975  90.976  1.00  0.00     0.022 A 
BRANCH  19  22
HETATM   22  C   UNK A   0      15.223   2.460  93.861  1.00  0.00     0.252 C 
HETATM   23  O   UNK A   0      16.376   2.854  93.701  1.00  0.00    -0.268 OA
ENDBRANCH  19  22
ENDBRANCH  15  16
ENDBRANCH  11  14
ENDBRANCH   7   8
ENDBRANCH   2   7
TORSDOF 9
ENDMDL
MODEL 2
REMARK VINA RESULT:      -7.5      0.076      1.426
REMARK  9 active torsions:
REMARK  status: ('A' for Active; 'I' for Inactive)
REMARK    1  A    between atoms: N_3  and  C_6 
REMARK    2  A    between atoms: C_6  and  C_9 
REMARK    3  A    between atoms: C_14  and  C_17 
REMARK       I    between atoms: N_26  and  C_15 
REMARK    4  A    between atoms: C_15  and  C_16 
REMARK    5  A    between atoms: C_20  and  C_23 
REMARK    6  A    between atoms: OG1_24  and  CB_28 
REMARK    7  A    between atoms: N_26  and  CA_27 
REMARK    8  A    between atoms: CA_27  and  CB_28 
REMARK    9  A    between atoms: CA_27  and  C_30 
ROOT
HETATM    1  O   UNK A   0       1.941   7.990  87.773  1.00  0.00    -0.388 OA
HETATM    2  N   UNK A   0       4.753   7.560  87.670  1.00  0.00     0.096 N 
HETATM    3  C   UNK A   0       4.186   8.913  87.755  1.00  0.00     0.299 C 
HETATM    4  C   UNK A   0       3.812   6.662  86.986  1.00  0.00     0.299 C 
HETATM    5  C   UNK A   0       2.836   8.863  88.465  1.00  0.00     0.198 C 
HETATM    6  C   UNK A   0       2.472   6.666  87.713  1.00  0.00     0.198 C 
ENDROOT
BRANCH   2   7
HETATM    7  C   UNK A   0       6.043   7.582  86.983  1.00  0.00     0.311 C 
BRANCH   7   8
HETATM    8  C   UNK A   0       7.132   6.975  87.800  1.00  0.00    -0.030 A 
HETATM    9  C   UNK A   0       8.347   6.636  87.201  1.00  0.00     0.010 A 
HETATM   10  C   UNK A   0       9.365   6.066  87.965  1.00  0.00     0.021 A 
HETATM   11  C   UNK A   0       9.170   5.837  89.326  1.00  0.00     0.018 A 
HETATM   12  C   UNK A   0       7.958   6.175  89.925  1.00  0.00     0.021 A 
HETATM   13  C   UNK A   0       6.939   6.744  89.162  1.00  0.00     0.010 A 
BRANCH  11  14
HETATM   14  C   UNK A   0      10.216   5.254  90.110  1.00  0.00    -0.061 C 
HETATM   15  C   UNK A   0      11.096   4.765  90.767  1.00  0.00    -0.061 C 
BRANCH  15  16
HETATM   16  C   UNK A   0      12.141   4.183  91.550  1.00  0.00     0.018 A 
HETATM   17  C   UNK A   0      13.398   3.967  90.983  1.00  0.00     0.022 A 
HETATM   18  C   UNK A   0      14.418   3.402  91.747  1.00  0.00     0.018 A 
HETATM   19  C   UNK A   0      14.161   3.067  93.060  1.00  0.00     0.032 A 
HETATM   20  C   UNK A   0      12.928   3.271  93.644  1.00  0.00     0.018 A 
HETATM   21  C   UNK A   0      11.906   3.835  92.880  1.00  0.00     0.022 A 
BRANCH  19  22
HETATM   22  C   UNK A   0      15.248   2.464  93.873  1.00  0.00     0.252 C 
HETATM   23  O   UNK A   0      16.415   2.764  93.632  1.00  0.00    -0.268 OA
ENDBRANCH  19  22
ENDBRANCH  15  16
ENDBRANCH  11  14
ENDBRANCH   7   8
ENDBRANCH   2   7
TORSDOF 9
ENDMDL
MODEL 3
REMARK VINA RESULT:      -7.5      0.158      1.020
REMARK  9 active torsions:
REMARK  status: ('A' for Active; 'I' for Inactive)
REMARK    1  A    between atoms: N_3  and  C_6 
REMARK    2  A    between atoms: C_6  and  C_9 
REMARK    3  A    between atoms: C_14  and  C_17 
REMARK       I    between atoms: N_26  and  C_15 
REMARK    4  A    between atoms: C_15  and  C_16 
REMARK    5  A    between atoms: C_20  and  C_23 
REMARK    6  A    between atoms: OG1_24  and  CB_28 
REMARK    7  A    between atoms: N_26  and  CA_27 
REMARK    8  A    between atoms: CA_27  and  CB_28 
REMARK    9  A    between atoms: CA_27  and  C_30 
ROOT
HETATM    1  O   UNK A   0       1.756   7.953  87.822  1.00  0.00    -0.388 OA
HETATM    2  N   UNK A   0       4.570   7.553  87.676  1.00  0.00     0.096 N 
HETATM    3  C   UNK A   0       3.990   8.900  87.779  1.00  0.00     0.299 C 
HETATM    4  C   UNK A   0       3.629   6.650  86.999  1.00  0.00     0.299 C 
HETATM    5  C   UNK A   0       2.651   8.831  88.508  1.00  0.00     0.198 C 
HETATM    6  C   UNK A   0       2.299   6.635  87.745  1.00  0.00     0.198 C 
ENDROOT
BRANCH   2   7
HETATM    7  C   UNK A   0       5.850   7.594  86.971  1.00  0.00     0.311 C 
BRANCH   7   8
HETATM    8  C   UNK A   0       6.956   6.986  87.765  1.00  0.00    -0.030 A 
HETATM    9  C   UNK A   0       6.752   6.660  89.106  1.00  0.00     0.010 A 
HETATM   10  C   UNK A   0       7.786   6.092  89.851  1.00  0.00     0.021 A 
HETATM   11  C   UNK A   0       9.022   5.850  89.253  1.00  0.00     0.018 A 
HETATM   12  C   UNK A   0       9.227   6.175  87.913  1.00  0.00     0.021 A 
HETATM   13  C   UNK A   0       8.193   6.742  87.169  1.00  0.00     0.010 A 
BRANCH  11  14
HETATM   14  C   UNK A   0      10.083   5.266  90.016  1.00  0.00    -0.061 C 
HETATM   15  C   UNK A   0      10.973   4.775  90.657  1.00  0.00    -0.061 C 
BRANCH  15  16
HETATM   16  C   UNK A   0      12.033   4.191  91.419  1.00  0.00     0.018 A 
HETATM   17  C   UNK A   0      13.286   4.000  90.836  1.00  0.00     0.022 A 
HETATM   18  C   UNK A   0      14.321   3.433  91.581  1.00  0.00     0.018 A 
HETATM   19  C   UNK A   0      14.080   3.072  92.890  1.00  0.00     0.032 A 
HETATM   20  C   UNK A   0      12.850   3.250  93.488  1.00  0.00     0.018 A 
HETATM   21  C   UNK A   0      11.815   3.817  92.745  1.00  0.00     0.022 A 
BRANCH  19  22
HETATM   22  C   UNK A   0      15.181   2.466  93.682  1.00  0.00     0.252 C 
HETATM   23  O   UNK A   0      16.261   3.048  93.749  1.00  0.00    -0.268 OA
ENDBRANCH  19  22
ENDBRANCH  15  16
ENDBRANCH  11  14
ENDBRANCH   7   8
ENDBRANCH   2   7
TORSDOF 9
ENDMDL
MODEL 4
REMARK VINA RESULT:      -7.1      1.124      1.546
REMARK  9 active torsions:
REMARK  status: ('A' for Active; 'I' for Inactive)
REMARK    1  A    between atoms: N_3  and  C_6 
REMARK    2  A    between atoms: C_6  and  C_9 
REMARK    3  A    between atoms: C_14  and  C_17 
REMARK       I    between atoms: N_26  and  C_15 
REMARK    4  A    between atoms: C_15  and  C_16 
REMARK    5  A    between atoms: C_20  and  C_23 
REMARK    6  A    between atoms: OG1_24  and  CB_28 
REMARK    7  A    between atoms: N_26  and  CA_27 
REMARK    8  A    between atoms: CA_27  and  CB_28 
REMARK    9  A    between atoms: CA_27  and  C_30 
ROOT
HETATM    1  O   UNK A   0       1.913   7.098  86.883  1.00  0.00    -0.388 OA
HETATM    2  N   UNK A   0       4.151   7.950  88.421  1.00  0.00     0.096 N 
HETATM    3  C   UNK A   0       2.943   8.778  88.300  1.00  0.00     0.299 C 
HETATM    4  C   UNK A   0       4.315   7.120  87.220  1.00  0.00     0.299 C 
HETATM    5  C   UNK A   0       1.727   7.886  88.060  1.00  0.00     0.198 C 
HETATM    6  C   UNK A   0       3.069   6.268  87.005  1.00  0.00     0.198 C 
ENDROOT
BRANCH   2   7
HETATM    7  C   UNK A   0       5.331   8.786  88.640  1.00  0.00     0.311 C 
BRANCH   7   8
HETATM    8  C   UNK A   0       6.477   8.014  89.201  1.00  0.00    -0.030 A 
HETATM    9  C   UNK A   0       7.763   8.213  88.699  1.00  0.00     0.010 A 
HETATM   10  C   UNK A   0       8.835   7.491  89.221  1.00  0.00     0.021 A 
HETATM   11  C   UNK A   0       8.621   6.571  90.248  1.00  0.00     0.018 A 
HETATM   12  C   UNK A   0       7.337   6.372  90.751  1.00  0.00     0.021 A 
HETATM   13  C   UNK A   0       6.264   7.094  90.228  1.00  0.00     0.010 A 
BRANCH  11  14
HETATM   14  C   UNK A   0       9.722   5.832  90.785  1.00  0.00    -0.061 C 
HETATM   15  C   UNK A   0      10.647   5.210  91.236  1.00  0.00    -0.061 C 
BRANCH  15  16
HETATM   16  C   UNK A   0      11.747   4.472  91.773  1.00  0.00     0.018 A 
HETATM   17  C   UNK A   0      11.737   4.081  93.112  1.00  0.00     0.022 A 
HETATM   18  C   UNK A   0      12.809   3.358  93.635  1.00  0.00     0.018 A 
HETATM   19  C   UNK A   0      13.866   3.042  92.807  1.00  0.00     0.032 A 
HETATM   20  C   UNK A   0      13.900   3.417  91.481  1.00  0.00     0.018 A 
HETATM   21  C   UNK A   0      12.828   4.140  90.957  1.00  0.00     0.022 A 
BRANCH  19  22
HETATM   22  C   UNK A   0      15.009   2.274  93.365  1.00  0.00     0.252 C 
HETATM   23  O   UNK A   0      16.027   2.873  93.703  1.00  0.00    -0.268 OA
ENDBRANCH  19  22
ENDBRANCH  15  16
ENDBRANCH  11  14
ENDBRANCH   7   8
ENDBRANCH   2   7
TORSDOF 9
ENDMDL
MODEL 5
REMARK VINA RESULT:      -6.9      1.585      2.146
REMARK  9 active torsions:
REMARK  status: ('A' for Active; 'I' for Inactive)
REMARK    1  A    between atoms: N_3  and  C_6 
REMARK    2  A    between atoms: C_6  and  C_9 
REMARK    3  A    between atoms: C_14  and  C_17 
REMARK       I    between atoms: N_26  and  C_15 
REMARK    4  A    between atoms: C_15  and  C_16 
REMARK    5  A    between atoms: C_20  and  C_23 
REMARK    6  A    between atoms: OG1_24  and  CB_28 
REMARK    7  A    between atoms: N_26  and  CA_27 
REMARK    8  A    between atoms: CA_27  and  CB_28 
REMARK    9  A    between atoms: CA_27  and  C_30 
ROOT
HETATM    1  O   UNK A   0       2.912  11.374  89.602  1.00  0.00    -0.388 OA
HETATM    2  N   UNK A   0       4.641   9.314  88.669  1.00  0.00     0.096 N 
HETATM    3  C   UNK A   0       3.796  10.084  87.746  1.00  0.00     0.299 C 
HETATM    4  C   UNK A   0       4.006   9.245  89.993  1.00  0.00     0.299 C 
HETATM    5  C   UNK A   0       3.536  11.474  88.320  1.00  0.00     0.198 C 
HETATM    6  C   UNK A   0       3.741  10.653  90.514  1.00  0.00     0.198 C 
ENDROOT
BRANCH   2   7
HETATM    7  C   UNK A   0       4.894   7.974  88.143  1.00  0.00     0.311 C 
BRANCH   7   8
HETATM    8  C   UNK A   0       6.105   7.347  88.745  1.00  0.00    -0.030 A 
HETATM    9  C   UNK A   0       7.347   7.972  88.621  1.00  0.00     0.010 A 
HETATM   10  C   UNK A   0       8.482   7.386  89.182  1.00  0.00     0.021 A 
HETATM   11  C   UNK A   0       8.374   6.176  89.867  1.00  0.00     0.018 A 
HETATM   12  C   UNK A   0       7.135   5.551  89.991  1.00  0.00     0.021 A 
HETATM   13  C   UNK A   0       6.000   6.137  89.430  1.00  0.00     0.010 A 
BRANCH  11  14
HETATM   14  C   UNK A   0       9.537   5.576  90.444  1.00  0.00    -0.061 C 
HETATM   15  C   UNK A   0      10.515   5.071  90.929  1.00  0.00    -0.061 C 
BRANCH  15  16
HETATM   16  C   UNK A   0      11.677   4.471  91.506  1.00  0.00     0.018 A 
HETATM   17  C   UNK A   0      11.700   4.163  92.866  1.00  0.00     0.022 A 
HETATM   18  C   UNK A   0      12.833   3.574  93.428  1.00  0.00     0.018 A 
HETATM   19  C   UNK A   0      13.916   3.307  92.618  1.00  0.00     0.032 A 
HETATM   20  C   UNK A   0      13.919   3.602  91.270  1.00  0.00     0.018 A 
HETATM   21  C   UNK A   0      12.786   4.190  90.707  1.00  0.00     0.022 A 
BRANCH  19  22
HETATM   22  C   UNK A   0      15.124   2.682  93.217  1.00  0.00     0.252 C 
HETATM   23  O   UNK A   0      14.988   1.855  94.116  1.00  0.00    -0.268 OA
ENDBRANCH  19  22
ENDBRANCH  15  16
ENDBRANCH  11  14
ENDBRANCH   7   8
ENDBRANCH   2   7
TORSDOF 9
ENDMDL
MODEL 6
REMARK VINA RESULT:      -6.9      1.515      1.915
REMARK  9 active torsions:
REMARK  status: ('A' for Active; 'I' for Inactive)
REMARK    1  A    between atoms: N_3  and  C_6 
REMARK    2  A    between atoms: C_6  and  C_9 
REMARK    3  A    between atoms: C_14  and  C_17 
REMARK       I    between atoms: N_26  and  C_15 
REMARK    4  A    between atoms: C_15  and  C_16 
REMARK    5  A    between atoms: C_20  and  C_23 
REMARK    6  A    between atoms: OG1_24  and  CB_28 
REMARK    7  A    between atoms: N_26  and  CA_27 
REMARK    8  A    between atoms: CA_27  and  CB_28 
REMARK    9  A    between atoms: CA_27  and  C_30 
ROOT
HETATM    1  O   UNK A   0       2.881  11.236  89.717  1.00  0.00    -0.388 OA
HETATM    2  N   UNK A   0       4.670   9.265  88.709  1.00  0.00     0.096 N 
HETATM    3  C   UNK A   0       3.800  10.042  87.815  1.00  0.00     0.299 C 
HETATM    4  C   UNK A   0       4.040   9.128  90.030  1.00  0.00     0.299 C 
HETATM    5  C   UNK A   0       3.499  11.402  88.440  1.00  0.00     0.198 C 
HETATM    6  C   UNK A   0       3.733  10.508  90.602  1.00  0.00     0.198 C 
ENDROOT
BRANCH   2   7
HETATM    7  C   UNK A   0       4.963   7.953  88.134  1.00  0.00     0.311 C 
BRANCH   7   8
HETATM    8  C   UNK A   0       6.171   7.324  88.741  1.00  0.00    -0.030 A 
HETATM    9  C   UNK A   0       6.047   6.151  89.485  1.00  0.00     0.010 A 
HETATM   10  C   UNK A   0       7.176   5.563  90.055  1.00  0.00     0.021 A 
HETATM   11  C   UNK A   0       8.429   6.148  89.878  1.00  0.00     0.018 A 
HETATM   12  C   UNK A   0       8.555   7.320  89.134  1.00  0.00     0.021 A 
HETATM   13  C   UNK A   0       7.426   7.908  88.565  1.00  0.00     0.010 A 
BRANCH  11  14
HETATM   14  C   UNK A   0       9.588   5.544  90.460  1.00  0.00    -0.061 C 
HETATM   15  C   UNK A   0      10.562   5.036  90.950  1.00  0.00    -0.061 C 
BRANCH  15  16
HETATM   16  C   UNK A   0      11.719   4.432  91.532  1.00  0.00     0.018 A 
HETATM   17  C   UNK A   0      11.699   4.033  92.869  1.00  0.00     0.022 A 
HETATM   18  C   UNK A   0      12.828   3.440  93.436  1.00  0.00     0.018 A 
HETATM   19  C   UNK A   0      13.949   3.260  92.654  1.00  0.00     0.032 A 
HETATM   20  C   UNK A   0      13.994   3.646  91.331  1.00  0.00     0.018 A 
HETATM   21  C   UNK A   0      12.866   4.238  90.763  1.00  0.00     0.022 A 
BRANCH  19  22
HETATM   22  C   UNK A   0      15.152   2.631  93.259  1.00  0.00     0.252 C 
HETATM   23  O   UNK A   0      16.025   3.347  93.742  1.00  0.00    -0.268 OA
ENDBRANCH  19  22
ENDBRANCH  15  16
ENDBRANCH  11  14
ENDBRANCH   7   8
ENDBRANCH   2   7
TORSDOF 9
ENDMDL
MODEL 7
REMARK VINA RESULT:      -6.7      3.561     10.313
REMARK  9 active torsions:
REMARK  status: ('A' for Active; 'I' for Inactive)
REMARK    1  A    between atoms: N_3  and  C_6 
REMARK    2  A    between atoms: C_6  and  C_9 
REMARK    3  A    between atoms: C_14  and  C_17 
REMARK       I    between atoms: N_26  and  C_15 
REMARK    4  A    between atoms: C_15  and  C_16 
REMARK    5  A    between atoms: C_20  and  C_23 
REMARK    6  A    between atoms: OG1_24  and  CB_28 
REMARK    7  A    between atoms: N_26  and  CA_27 
REMARK    8  A    between atoms: CA_27  and  CB_28 
REMARK    9  A    between atoms: CA_27  and  C_30 
ROOT
HETATM    1  O   UNK A   0      16.195   3.151  93.600  1.00  0.00    -0.388 OA
HETATM    2  N   UNK A   0      13.464   2.933  92.829  1.00  0.00     0.096 N 
HETATM    3  C   UNK A   0      14.275   1.744  93.128  1.00  0.00     0.299 C 
HETATM    4  C   UNK A   0      14.322   4.013  92.323  1.00  0.00     0.299 C 
HETATM    5  C   UNK A   0      15.374   2.105  94.124  1.00  0.00     0.198 C 
HETATM    6  C   UNK A   0      15.420   4.321  93.336  1.00  0.00     0.198 C 
ENDROOT
BRANCH   2   7
HETATM    7  C   UNK A   0      12.410   2.612  91.868  1.00  0.00     0.311 C 
BRANCH   7   8
HETATM    8  C   UNK A   0      11.571   3.797  91.529  1.00  0.00    -0.030 A 
HETATM    9  C   UNK A   0      10.939   4.516  92.544  1.00  0.00     0.010 A 
HETATM   10  C   UNK A   0      10.152   5.623  92.228  1.00  0.00     0.021 A 
HETATM   11  C   UNK A   0       9.999   6.011  90.898  1.00  0.00     0.018 A 
HETATM   12  C   UNK A   0      10.630   5.294  89.883  1.00  0.00     0.021 A 
HETATM   13  C   UNK A   0      11.416   4.186  90.199  1.00  0.00     0.010 A 
BRANCH  11  14
HETATM   14  C   UNK A   0       9.193   7.148  90.574  1.00  0.00    -0.061 C 
HETATM   15  C   UNK A   0       8.516   8.104  90.301  1.00  0.00    -0.061 C 
BRANCH  15  16
HETATM   16  C   UNK A   0       7.710   9.240  89.976  1.00  0.00     0.018 A 
HETATM   17  C   UNK A   0       6.343   9.226  90.255  1.00  0.00     0.022 A 
HETATM   18  C   UNK A   0       5.558  10.335  89.941  1.00  0.00     0.018 A 
HETATM   19  C   UNK A   0       6.157  11.432  89.357  1.00  0.00     0.032 A 
HETATM   20  C   UNK A   0       7.505  11.470  89.071  1.00  0.00     0.018 A 
HETATM   21  C   UNK A   0       8.292  10.361  89.385  1.00  0.00     0.022 A 
BRANCH  19  22
HETATM   22  C   UNK A   0       5.319  12.613  89.021  1.00  0.00     0.252 C 
HETATM   23  O   UNK A   0       4.781  12.671  87.918  1.00  0.00    -0.268 OA
ENDBRANCH  19  22
ENDBRANCH  15  16
ENDBRANCH  11  14
ENDBRANCH   7   8
ENDBRANCH   2   7
TORSDOF 9
ENDMDL
MODEL 8
REMARK VINA RESULT:      -6.6      3.925     10.399
REMARK  9 active torsions:
REMARK  status: ('A' for Active; 'I' for Inactive)
REMARK    1  A    between atoms: N_3  and  C_6 
REMARK    2  A    between atoms: C_6  and  C_9 
REMARK    3  A    between atoms: C_14  and  C_17 
REMARK       I    between atoms: N_26  and  C_15 
REMARK    4  A    between atoms: C_15  and  C_16 
REMARK    5  A    between atoms: C_20  and  C_23 
REMARK    6  A    between atoms: OG1_24  and  CB_28 
REMARK    7  A    between atoms: N_26  and  CA_27 
REMARK    8  A    between atoms: CA_27  and  CB_28 
REMARK    9  A    between atoms: CA_27  and  C_30 
ROOT
HETATM    1  O   UNK A   0      14.567   3.319  92.159  1.00  0.00    -0.388 OA
HETATM    2  N   UNK A   0      11.845   4.151  92.139  1.00  0.00     0.096 N 
HETATM    3  C   UNK A   0      12.377   3.290  93.205  1.00  0.00     0.299 C 
HETATM    4  C   UNK A   0      12.590   3.927  90.892  1.00  0.00     0.299 C 
HETATM    5  C   UNK A   0      13.870   3.553  93.384  1.00  0.00     0.198 C 
HETATM    6  C   UNK A   0      14.077   4.174  91.126  1.00  0.00     0.198 C 
ENDROOT
BRANCH   2   7
HETATM    7  C   UNK A   0      10.417   3.908  91.942  1.00  0.00     0.311 C 
BRANCH   7   8
HETATM    8  C   UNK A   0       9.660   5.163  91.670  1.00  0.00    -0.030 A 
HETATM    9  C   UNK A   0       8.725   5.201  90.635  1.00  0.00     0.010 A 
HETATM   10  C   UNK A   0       8.017   6.376  90.379  1.00  0.00     0.021 A 
HETATM   11  C   UNK A   0       8.243   7.509  91.159  1.00  0.00     0.018 A 
HETATM   12  C   UNK A   0       9.176   7.471  92.193  1.00  0.00     0.021 A 
HETATM   13  C   UNK A   0       9.885   6.298  92.449  1.00  0.00     0.010 A 
BRANCH  11  14
HETATM   14  C   UNK A   0       7.515   8.713  90.897  1.00  0.00    -0.061 C 
HETATM   15  C   UNK A   0       6.903   9.724  90.677  1.00  0.00    -0.061 C 
BRANCH  15  16
HETATM   16  C   UNK A   0       6.176  10.927  90.416  1.00  0.00     0.018 A 
HETATM   17  C   UNK A   0       5.272  11.413  91.361  1.00  0.00     0.022 A 
HETATM   18  C   UNK A   0       4.564  12.588  91.107  1.00  0.00     0.018 A 
HETATM   19  C   UNK A   0       4.776  13.250  89.916  1.00  0.00     0.032 A 
HETATM   20  C   UNK A   0       5.663  12.790  88.966  1.00  0.00     0.018 A 
HETATM   21  C   UNK A   0       6.372  11.615  89.218  1.00  0.00     0.022 A 
BRANCH  19  22
HETATM   22  C   UNK A   0       4.020  14.500  89.646  1.00  0.00     0.252 C 
HETATM   23  O   UNK A   0       4.620  15.572  89.629  1.00  0.00    -0.268 OA
ENDBRANCH  19  22
ENDBRANCH  15  16
ENDBRANCH  11  14
ENDBRANCH   7   8
ENDBRANCH   2   7
TORSDOF 9
ENDMDL
MODEL 9
REMARK VINA RESULT:      -6.4      4.869     10.239
REMARK  9 active torsions:
REMARK  status: ('A' for Active; 'I' for Inactive)
REMARK    1  A    between atoms: N_3  and  C_6 
REMARK    2  A    between atoms: C_6  and  C_9 
REMARK    3  A    between atoms: C_14  and  C_17 
REMARK       I    between atoms: N_26  and  C_15 
REMARK    4  A    between atoms: C_15  and  C_16 
REMARK    5  A    between atoms: C_20  and  C_23 
REMARK    6  A    between atoms: OG1_24  and  CB_28 
REMARK    7  A    between atoms: N_26  and  CA_27 
REMARK    8  A    between atoms: CA_27  and  CB_28 
REMARK    9  A    between atoms: CA_27  and  C_30 
ROOT
HETATM    1  O   UNK A   0      11.249   3.931  88.821  1.00  0.00    -0.388 OA
HETATM    2  N   UNK A   0       9.470   5.865  87.727  1.00  0.00     0.096 N 
HETATM    3  C   UNK A   0      10.195   4.917  86.870  1.00  0.00     0.299 C 
HETATM    4  C   UNK A   0      10.245   6.136  88.946  1.00  0.00     0.299 C 
HETATM    5  C   UNK A   0      10.488   3.637  87.648  1.00  0.00     0.198 C 
HETATM    6  C   UNK A   0      10.538   4.829  89.674  1.00  0.00     0.198 C 
ENDROOT
BRANCH   2   7
HETATM    7  C   UNK A   0       9.187   7.105  87.005  1.00  0.00     0.311 C 
BRANCH   7   8
HETATM    8  C   UNK A   0       8.387   8.065  87.817  1.00  0.00    -0.030 A 
HETATM    9  C   UNK A   0       8.941   9.290  88.193  1.00  0.00     0.010 A 
HETATM   10  C   UNK A   0       8.194  10.189  88.954  1.00  0.00     0.021 A 
HETATM   11  C   UNK A   0       6.893   9.863  89.338  1.00  0.00     0.018 A 
HETATM   12  C   UNK A   0       6.339   8.641  88.963  1.00  0.00     0.021 A 
HETATM   13  C   UNK A   0       7.086   7.741  88.202  1.00  0.00     0.010 A 
BRANCH  11  14
HETATM   14  C   UNK A   0       6.126  10.786  90.117  1.00  0.00    -0.061 C 
HETATM   15  C   UNK A   0       5.482  11.562  90.771  1.00  0.00    -0.061 C 
BRANCH  15  16
HETATM   16  C   UNK A   0       4.715  12.485  91.549  1.00  0.00     0.018 A 
HETATM   17  C   UNK A   0       4.486  12.233  92.902  1.00  0.00     0.022 A 
HETATM   18  C   UNK A   0       3.741  13.134  93.662  1.00  0.00     0.018 A 
HETATM   19  C   UNK A   0       3.242  14.266  93.052  1.00  0.00     0.032 A 
HETATM   20  C   UNK A   0       3.454  14.538  91.717  1.00  0.00     0.018 A 
HETATM   21  C   UNK A   0       4.199  13.637  90.956  1.00  0.00     0.022 A 
BRANCH  19  22
HETATM   22  C   UNK A   0       2.445  15.225  93.861  1.00  0.00     0.252 C 
HETATM   23  O   UNK A   0       1.360  15.612  93.436  1.00  0.00    -0.268 OA
ENDBRANCH  19  22
ENDBRANCH  15  16
ENDBRANCH  11  14
ENDBRANCH   7   8
ENDBRANCH   2   7
TORSDOF 9
ENDMDL
