MODEL 1
REMARK VINA RESULT:      -6.9      0.000      0.000
REMARK  11 active torsions:
REMARK  status: ('A' for Active; 'I' for Inactive)
REMARK    1  A    between atoms: O_2  and  C_18 
REMARK    2  A    between atoms: O_5  and  P_8 
REMARK    3  A    between atoms: N_6  and  C_11 
REMARK    4  A    between atoms: N_7  and  C_15 
REMARK       I    between atoms: N_7  and  C_24 
REMARK    5  A    between atoms: P_8  and  C_23 
REMARK    6  A    between atoms: C_11  and  C_14 
REMARK    7  A    between atoms: C_15  and  C_18 
REMARK    8  A    between atoms: C_15  and  C_23 
REMARK    9  A    between atoms: C_21  and  C_26 
REMARK   10  A    between atoms: C_24  and  C_25 
REMARK   11  A    between atoms: C_29  and  C_32 
ROOT
HETATM    1  O   UNL     1      16.410   4.339  94.009  1.00  0.00     0.000 OA
HETATM    2  N   UNL     1      14.531   2.655  92.690  1.00  0.00     0.000 N 
HETATM    3  C   UNL     1      14.470   4.118  92.567  1.00  0.00     0.000 C 
HETATM    4  C   UNL     1      15.122   2.283  93.983  1.00  0.00     0.000 C 
HETATM    5  C   UNL     1      15.866   4.711  92.741  1.00  0.00     0.000 C 
HETATM    6  C   UNL     1      16.502   2.918  94.124  1.00  0.00     0.000 C 
ENDROOT
BRANCH   2   7
HETATM    7  C   UNL     1      13.202   2.067  92.537  1.00  0.00     0.000 C 
BRANCH   7   8
HETATM    8  C   UNL     1      12.158   3.090  92.245  1.00  0.00     0.000 A 
HETATM    9  C   UNL     1      11.701   3.929  93.262  1.00  0.00     0.000 A 
HETATM   10  C   UNL     1      10.723   4.886  92.991  1.00  0.00     0.000 A 
HETATM   11  C   UNL     1      10.204   5.004  91.702  1.00  0.00     0.000 A 
HETATM   12  C   UNL     1      10.660   4.167  90.685  1.00  0.00     0.000 A 
HETATM   13  C   UNL     1      11.637   3.210  90.957  1.00  0.00     0.000 A 
BRANCH  11  14
HETATM   14  C   UNL     1       9.202   5.986  91.423  1.00  0.00     0.000 C 
HETATM   15  C   UNL     1       8.359   6.812  91.188  1.00  0.00     0.000 C 
BRANCH  15  16
HETATM   16  C   UNL     1       7.358   7.793  90.909  1.00  0.00     0.000 A 
HETATM   17  C   UNL     1       7.732   9.093  90.570  1.00  0.00     0.000 A 
HETATM   18  C   UNL     1       6.754  10.050  90.296  1.00  0.00     0.000 A 
HETATM   19  C   UNL     1       5.426   9.685  90.366  1.00  0.00     0.000 A 
HETATM   20  C   UNL     1       5.031   8.406  90.699  1.00  0.00     0.000 A 
HETATM   21  C   UNL     1       6.007   7.449  90.974  1.00  0.00     0.000 A 
BRANCH  19  22
HETATM   22  C   UNL     1       4.385  10.705  90.075  1.00  0.00     0.000 C 
HETATM   23  O   UNL     1       3.279  10.338  89.686  1.00  0.00     0.000 OA
HETATM   24  N   UNL     1       4.749  12.025  90.297  1.00  0.00     0.000 N 
HETATM   25  HN  UNL     1       5.674  12.251  90.644  1.00  0.00     0.000 HD
BRANCH  24  26
HETATM   26  C   UNL     1       3.844  13.126  90.086  1.00  0.00     0.000 C 
BRANCH  26  27
HETATM   27  C   UNL     1       3.272  13.685  91.395  1.00  0.00     0.000 C 
HETATM   28  C   UNL     1       2.121  12.844  91.936  1.00  0.00     0.000 C 
BRANCH  27  29
HETATM   29  O   UNL     1       4.305  13.745  92.378  1.00  0.00     0.000 OA
HETATM   30  H   UNL     1       4.191  14.564  92.889  1.00  0.00     0.000 HD
ENDBRANCH  27  29
ENDBRANCH  26  27
BRANCH  26  31
HETATM   31  C   UNL     1       4.591  14.200  89.303  1.00  0.00     0.000 C 
HETATM   32  O   UNL     1       4.536  15.395  89.586  1.00  0.00     0.000 OA
BRANCH  31  33
HETATM   33  P   UNL     1       5.287  13.678  88.239  1.00  0.00     0.000 P 
HETATM   34  H   UNL     1       5.880  14.727  87.566  1.00  0.00     0.000 HD
BRANCH  33  35
HETATM   35  O   UNL     1       4.529  12.947  87.314  1.00  0.00     0.000 OA
HETATM   36  H   UNL     1       4.959  12.078  87.385  1.00  0.00     0.000 HD
ENDBRANCH  33  35
ENDBRANCH  31  33
ENDBRANCH  26  31
ENDBRANCH  24  26
ENDBRANCH  19  22
ENDBRANCH  15  16
ENDBRANCH  11  14
ENDBRANCH   7   8
ENDBRANCH   2   7
TORSDOF 11
ENDMDL
