MODEL 1
REMARK VINA RESULT:      -5.7      0.000      0.000
REMARK  12 active torsions:
REMARK  status: ('A' for Active; 'I' for Inactive)
REMARK    1  A    between atoms: O_2  and  C_16 
REMARK    2  A    between atoms: N_5  and  C_9 
REMARK    3  A    between atoms: N_6  and  C_13 
REMARK       I    between atoms: N_6  and  C_22 
REMARK    4  A    between atoms: C_9  and  C_12 
REMARK    5  A    between atoms: C_13  and  C_16 
REMARK    6  A    between atoms: C_13  and  C_21 
REMARK    7  A    between atoms: C_19  and  C_24 
REMARK    8  A    between atoms: C_21  and  C_33 
REMARK    9  A    between atoms: C_22  and  C_23 
REMARK   10  A    between atoms: C_27  and  C_30 
REMARK   11  A    between atoms: C_33  and  C_34 
REMARK   12  A    between atoms: C_34  and  C_35 
ROOT
HETATM    1  O   UNL     1       2.517  14.430  94.112  1.00  0.00    -0.350 OA
HETATM    2  N   UNL     1       2.608  14.475  91.268  1.00  0.00     0.147 N 
HETATM    3  C   UNL     1       1.549  13.757  91.991  1.00  0.00     0.283 C 
HETATM    4  C   UNL     1       3.834  14.512  92.077  1.00  0.00     0.283 C 
HETATM    5  C   UNL     1       1.311  14.417  93.347  1.00  0.00     0.178 C 
HETATM    6  C   UNL     1       3.543  15.152  93.430  1.00  0.00     0.178 C 
ENDROOT
BRANCH   2   7
HETATM    7  C   UNL     1       2.861  13.853  89.969  1.00  0.00     0.277 C 
BRANCH   7   8
HETATM    8  C   UNL     1       3.816  12.711  90.062  1.00  0.00     0.011 A 
HETATM    9  C   UNL     1       5.017  12.748  89.353  1.00  0.00    -0.002 A 
HETATM   10  C   UNL     1       5.909  11.680  89.437  1.00  0.00     0.008 A 
HETATM   11  C   UNL     1       5.602  10.577  90.233  1.00  0.00     0.042 A 
HETATM   12  C   UNL     1       4.403  10.539  90.942  1.00  0.00     0.008 A 
HETATM   13  C   UNL     1       3.509  11.607  90.857  1.00  0.00    -0.002 A 
BRANCH  11  14
HETATM   14  C   UNL     1       6.518   9.482  90.321  1.00  0.00    -0.059 C 
HETATM   15  C   UNL     1       7.288   8.561  90.395  1.00  0.00    -0.059 C 
BRANCH  15  16
HETATM   16  C   UNL     1       8.204   7.467  90.483  1.00  0.00     0.042 A 
HETATM   17  C   UNL     1       9.312   7.417  89.636  1.00  0.00     0.008 A 
HETATM   18  C   UNL     1      10.207   6.350  89.723  1.00  0.00     0.005 A 
HETATM   19  C   UNL     1       9.975   5.360  90.655  1.00  0.00     0.056 A 
HETATM   20  C   UNL     1       8.888   5.387  91.502  1.00  0.00     0.005 A 
HETATM   21  C   UNL     1       7.992   6.452  91.416  1.00  0.00     0.008 A 
BRANCH  19  22
HETATM   22  C   UNL     1      10.928   4.223  90.746  1.00  0.00     0.254 C 
HETATM   23  O   UNL     1      10.679   3.182  90.142  1.00  0.00    -0.268 OA
HETATM   24  N   UNL     1      12.066   4.444  91.508  1.00  0.00    -0.335 N 
HETATM   25  HN  UNL     1      12.217   5.339  91.958  1.00  0.00     0.164 HD
BRANCH  24  26
HETATM   26  C   UNL     1      13.094   3.448  91.672  1.00  0.00     0.166 C 
BRANCH  26  27
HETATM   27  C   UNL     1      14.401   3.821  90.961  1.00  0.00     0.138 C 
HETATM   28  C   UNL     1      14.629   3.005  89.693  1.00  0.00     0.034 C 
BRANCH  27  29
HETATM   29  O   UNL     1      14.382   5.207  90.623  1.00  0.00    -0.383 OA
HETATM   30  H   UNL     1      14.168   5.714  91.424  1.00  0.00     0.210 HD
ENDBRANCH  27  29
ENDBRANCH  26  27
BRANCH  26  31
HETATM   31  C   UNL     1      13.315   3.249  93.168  1.00  0.00     0.181 C 
HETATM   32  O   UNL     1      12.423   2.892  93.935  1.00  0.00    -0.294 OA
BRANCH  31  33
HETATM   33  C   UNL     1      14.581   2.282  93.467  1.00  0.00     0.138 C 
BRANCH  33  34
HETATM   34  C   UNL     1      15.527   3.211  93.953  1.00  0.00     0.208 C 
HETATM   35  O   UNL     1      16.649   2.791  94.121  1.00  0.00    -0.289 OA
BRANCH  34  36
HETATM   36  C   UNL     1      15.483   4.578  94.004  1.00  0.00     0.194 C 
HETATM   37  O   UNL     1      16.515   5.519  93.926  1.00  0.00    -0.185 OA
ENDBRANCH  34  36
ENDBRANCH  33  34
ENDBRANCH  31  33
ENDBRANCH  26  31
ENDBRANCH  24  26
ENDBRANCH  19  22
ENDBRANCH  15  16
ENDBRANCH  11  14
ENDBRANCH   7   8
ENDBRANCH   2   7
TORSDOF 12
ENDMDL
MODEL 2
REMARK VINA RESULT:      -5.4      2.388     12.735
REMARK  12 active torsions:
REMARK  status: ('A' for Active; 'I' for Inactive)
REMARK    1  A    between atoms: O_2  and  C_16 
REMARK    2  A    between atoms: N_5  and  C_9 
REMARK    3  A    between atoms: N_6  and  C_13 
REMARK       I    between atoms: N_6  and  C_22 
REMARK    4  A    between atoms: C_9  and  C_12 
REMARK    5  A    between atoms: C_13  and  C_16 
REMARK    6  A    between atoms: C_13  and  C_21 
REMARK    7  A    between atoms: C_19  and  C_24 
REMARK    8  A    between atoms: C_21  and  C_33 
REMARK    9  A    between atoms: C_22  and  C_23 
REMARK   10  A    between atoms: C_27  and  C_30 
REMARK   11  A    between atoms: C_33  and  C_34 
REMARK   12  A    between atoms: C_34  and  C_35 
ROOT
HETATM    1  O   UNL     1      15.505   4.747  92.564  1.00  0.00    -0.350 OA
HETATM    2  N   UNL     1      13.476   2.788  92.180  1.00  0.00     0.147 N 
HETATM    3  C   UNL     1      13.624   3.930  91.267  1.00  0.00     0.283 C 
HETATM    4  C   UNL     1      13.948   3.153  93.523  1.00  0.00     0.283 C 
HETATM    5  C   UNL     1      15.079   4.392  91.247  1.00  0.00     0.178 C 
HETATM    6  C   UNL     1      15.394   3.633  93.451  1.00  0.00     0.178 C 
ENDROOT
BRANCH   2   7
HETATM    7  C   UNL     1      12.087   2.336  92.222  1.00  0.00     0.277 C 
BRANCH   7   8
HETATM    8  C   UNL     1      11.122   3.470  92.297  1.00  0.00     0.011 A 
HETATM    9  C   UNL     1      11.190   4.373  93.359  1.00  0.00    -0.002 A 
HETATM   10  C   UNL     1      10.286   5.433  93.432  1.00  0.00     0.008 A 
HETATM   11  C   UNL     1       9.317   5.590  92.441  1.00  0.00     0.042 A 
HETATM   12  C   UNL     1       9.249   4.689  91.380  1.00  0.00     0.008 A 
HETATM   13  C   UNL     1      10.152   3.629  91.308  1.00  0.00    -0.002 A 
BRANCH  11  14
HETATM   14  C   UNL     1       8.392   6.679  92.514  1.00  0.00    -0.059 C 
HETATM   15  C   UNL     1       7.615   7.595  92.576  1.00  0.00    -0.059 C 
BRANCH  15  16
HETATM   16  C   UNL     1       6.691   8.683  92.648  1.00  0.00     0.042 A 
HETATM   17  C   UNL     1       7.065   9.874  93.270  1.00  0.00     0.008 A 
HETATM   18  C   UNL     1       6.164  10.937  93.338  1.00  0.00     0.005 A 
HETATM   19  C   UNL     1       4.910  10.785  92.783  1.00  0.00     0.056 A 
HETATM   20  C   UNL     1       4.516   9.617  92.164  1.00  0.00     0.005 A 
HETATM   21  C   UNL     1       5.417   8.554  92.095  1.00  0.00     0.008 A 
BRANCH  19  22
HETATM   22  C   UNL     1       3.950  11.916  92.857  1.00  0.00     0.254 C 
HETATM   23  O   UNL     1       2.968  11.822  93.590  1.00  0.00    -0.268 OA
HETATM   24  N   UNL     1       4.262  13.030  92.090  1.00  0.00    -0.335 N 
HETATM   25  HN  UNL     1       5.105  13.045  91.527  1.00  0.00     0.164 HD
BRANCH  24  26
HETATM   26  C   UNL     1       3.443  14.215  92.074  1.00  0.00     0.166 C 
BRANCH  26  27
HETATM   27  C   UNL     1       3.730  15.151  93.255  1.00  0.00     0.138 C 
HETATM   28  C   UNL     1       2.476  15.483  94.056  1.00  0.00     0.034 C 
BRANCH  27  29
HETATM   29  O   UNL     1       4.687  14.543  94.124  1.00  0.00    -0.383 OA
HETATM   30  H   UNL     1       5.493  14.364  93.611  1.00  0.00     0.210 HD
ENDBRANCH  27  29
ENDBRANCH  26  27
BRANCH  26  31
HETATM   31  C   UNL     1       3.669  14.920  90.741  1.00  0.00     0.181 C 
HETATM   32  O   UNL     1       4.788  15.179  90.301  1.00  0.00    -0.294 OA
BRANCH  31  33
HETATM   33  C   UNL     1       2.865  14.197  89.533  1.00  0.00     0.138 C 
BRANCH  33  34
HETATM   34  C   UNL     1       3.725  13.116  89.241  1.00  0.00     0.208 C 
HETATM   35  O   UNL     1       3.385  12.035  89.665  1.00  0.00    -0.289 OA
BRANCH  34  36
HETATM   36  C   UNL     1       4.732  13.007  88.321  1.00  0.00     0.194 C 
HETATM   37  O   UNL     1       4.998  13.766  87.176  1.00  0.00    -0.185 OA
ENDBRANCH  34  36
ENDBRANCH  33  34
ENDBRANCH  31  33
ENDBRANCH  26  31
ENDBRANCH  24  26
ENDBRANCH  19  22
ENDBRANCH  15  16
ENDBRANCH  11  14
ENDBRANCH   7   8
ENDBRANCH   2   7
TORSDOF 12
ENDMDL
MODEL 3
REMARK VINA RESULT:      -4.4      2.178     12.619
REMARK  12 active torsions:
REMARK  status: ('A' for Active; 'I' for Inactive)
REMARK    1  A    between atoms: O_2  and  C_16 
REMARK    2  A    between atoms: N_5  and  C_9 
REMARK    3  A    between atoms: N_6  and  C_13 
REMARK       I    between atoms: N_6  and  C_22 
REMARK    4  A    between atoms: C_9  and  C_12 
REMARK    5  A    between atoms: C_13  and  C_16 
REMARK    6  A    between atoms: C_13  and  C_21 
REMARK    7  A    between atoms: C_19  and  C_24 
REMARK    8  A    between atoms: C_21  and  C_33 
REMARK    9  A    between atoms: C_22  and  C_23 
REMARK   10  A    between atoms: C_27  and  C_30 
REMARK   11  A    between atoms: C_33  and  C_34 
REMARK   12  A    between atoms: C_34  and  C_35 
ROOT
HETATM    1  O   UNL     1      15.692   4.231  93.316  1.00  0.00    -0.350 OA
HETATM    2  N   UNL     1      13.656   2.547  92.259  1.00  0.00     0.147 N 
HETATM    3  C   UNL     1      13.935   3.869  91.682  1.00  0.00     0.283 C 
HETATM    4  C   UNL     1      13.993   2.540  93.689  1.00  0.00     0.283 C 
HETATM    5  C   UNL     1      15.397   4.238  91.918  1.00  0.00     0.178 C 
HETATM    6  C   UNL     1      15.453   2.940  93.878  1.00  0.00     0.178 C 
ENDROOT
BRANCH   2   7
HETATM    7  C   UNL     1      12.256   2.177  92.053  1.00  0.00     0.277 C 
BRANCH   7   8
HETATM    8  C   UNL     1      11.376   3.366  91.867  1.00  0.00     0.011 A 
HETATM    9  C   UNL     1      10.821   3.633  90.615  1.00  0.00    -0.002 A 
HETATM   10  C   UNL     1      10.000   4.746  90.439  1.00  0.00     0.008 A 
HETATM   11  C   UNL     1       9.732   5.591  91.516  1.00  0.00     0.042 A 
HETATM   12  C   UNL     1      10.286   5.326  92.766  1.00  0.00     0.008 A 
HETATM   13  C   UNL     1      11.108   4.213  92.943  1.00  0.00    -0.002 A 
BRANCH  11  14
HETATM   14  C   UNL     1       8.888   6.732  91.336  1.00  0.00    -0.059 C 
HETATM   15  C   UNL     1       8.179   7.691  91.184  1.00  0.00    -0.059 C 
BRANCH  15  16
HETATM   16  C   UNL     1       7.334   8.831  91.003  1.00  0.00     0.042 A 
HETATM   17  C   UNL     1       7.074   9.308  89.718  1.00  0.00     0.008 A 
HETATM   18  C   UNL     1       6.248  10.418  89.542  1.00  0.00     0.005 A 
HETATM   19  C   UNL     1       5.701  11.025  90.653  1.00  0.00     0.056 A 
HETATM   20  C   UNL     1       5.944  10.573  91.933  1.00  0.00     0.005 A 
HETATM   21  C   UNL     1       6.769   9.463  92.111  1.00  0.00     0.008 A 
BRANCH  19  22
HETATM   22  C   UNL     1       4.823  12.209  90.465  1.00  0.00     0.254 C 
HETATM   23  O   UNL     1       4.311  12.407  89.366  1.00  0.00    -0.268 OA
HETATM   24  N   UNL     1       4.628  13.005  91.585  1.00  0.00    -0.335 N 
HETATM   25  HN  UNL     1       5.064  12.765  92.467  1.00  0.00     0.164 HD
BRANCH  24  26
HETATM   26  C   UNL     1       3.785  14.173  91.568  1.00  0.00     0.166 C 
BRANCH  26  27
HETATM   27  C   UNL     1       3.800  14.897  90.216  1.00  0.00     0.138 C 
HETATM   28  C   UNL     1       5.214  15.133  89.696  1.00  0.00     0.034 C 
BRANCH  27  29
HETATM   29  O   UNL     1       3.075  14.130  89.255  1.00  0.00    -0.383 OA
HETATM   30  H   UNL     1       2.830  14.716  88.519  1.00  0.00     0.210 HD
ENDBRANCH  27  29
ENDBRANCH  26  27
BRANCH  26  31
HETATM   31  C   UNL     1       2.374  13.735  91.946  1.00  0.00     0.181 C 
HETATM   32  O   UNL     1       1.369  14.132  91.359  1.00  0.00    -0.294 OA
BRANCH  31  33
HETATM   33  C   UNL     1       2.244  12.121  92.021  1.00  0.00     0.138 C 
BRANCH  33  34
HETATM   34  C   UNL     1       2.107  11.922  93.413  1.00  0.00     0.208 C 
HETATM   35  O   UNL     1       1.957  12.919  94.081  1.00  0.00    -0.289 OA
BRANCH  34  36
HETATM   36  C   UNL     1       1.828  10.787  94.124  1.00  0.00     0.194 C 
HETATM   37  O   UNL     1       2.421   9.520  94.075  1.00  0.00    -0.185 OA
ENDBRANCH  34  36
ENDBRANCH  33  34
ENDBRANCH  31  33
ENDBRANCH  26  31
ENDBRANCH  24  26
ENDBRANCH  19  22
ENDBRANCH  15  16
ENDBRANCH  11  14
ENDBRANCH   7   8
ENDBRANCH   2   7
TORSDOF 12
ENDMDL
MODEL 4
REMARK VINA RESULT:      -3.9      1.653      2.898
REMARK  12 active torsions:
REMARK  status: ('A' for Active; 'I' for Inactive)
REMARK    1  A    between atoms: O_2  and  C_16 
REMARK    2  A    between atoms: N_5  and  C_9 
REMARK    3  A    between atoms: N_6  and  C_13 
REMARK       I    between atoms: N_6  and  C_22 
REMARK    4  A    between atoms: C_9  and  C_12 
REMARK    5  A    between atoms: C_13  and  C_16 
REMARK    6  A    between atoms: C_13  and  C_21 
REMARK    7  A    between atoms: C_19  and  C_24 
REMARK    8  A    between atoms: C_21  and  C_33 
REMARK    9  A    between atoms: C_22  and  C_23 
REMARK   10  A    between atoms: C_27  and  C_30 
REMARK   11  A    between atoms: C_33  and  C_34 
REMARK   12  A    between atoms: C_34  and  C_35 
ROOT
HETATM    1  O   UNL     1       5.068  15.625  91.394  1.00  0.00    -0.350 OA
HETATM    2  N   UNL     1       3.326  13.684  90.254  1.00  0.00     0.147 N 
HETATM    3  C   UNL     1       3.514  13.787  91.708  1.00  0.00     0.283 C 
HETATM    4  C   UNL     1       4.539  14.132  89.556  1.00  0.00     0.283 C 
HETATM    5  C   UNL     1       3.882  15.221  92.081  1.00  0.00     0.178 C 
HETATM    6  C   UNL     1       4.883  15.557  89.979  1.00  0.00     0.178 C 
ENDROOT
BRANCH   2   7
HETATM    7  C   UNL     1       2.983  12.315  89.873  1.00  0.00     0.277 C 
BRANCH   7   8
HETATM    8  C   UNL     1       4.139  11.382  90.004  1.00  0.00     0.011 A 
HETATM    9  C   UNL     1       4.540  10.613  88.911  1.00  0.00    -0.002 A 
HETATM   10  C   UNL     1       5.620   9.738  89.032  1.00  0.00     0.008 A 
HETATM   11  C   UNL     1       6.299   9.636  90.246  1.00  0.00     0.042 A 
HETATM   12  C   UNL     1       5.901  10.404  91.337  1.00  0.00     0.008 A 
HETATM   13  C   UNL     1       4.820  11.278  91.216  1.00  0.00    -0.002 A 
BRANCH  11  14
HETATM   14  C   UNL     1       7.409   8.741  90.369  1.00  0.00    -0.059 C 
HETATM   15  C   UNL     1       8.341   7.989  90.473  1.00  0.00    -0.059 C 
BRANCH  15  16
HETATM   16  C   UNL     1       9.450   7.095  90.597  1.00  0.00     0.042 A 
HETATM   17  C   UNL     1      10.100   6.629  89.453  1.00  0.00     0.008 A 
HETATM   18  C   UNL     1      11.183   5.759  89.575  1.00  0.00     0.005 A 
HETATM   19  C   UNL     1      11.593   5.375  90.835  1.00  0.00     0.056 A 
HETATM   20  C   UNL     1      10.967   5.822  91.980  1.00  0.00     0.005 A 
HETATM   21  C   UNL     1       9.883   6.692  91.860  1.00  0.00     0.008 A 
BRANCH  19  22
HETATM   22  C   UNL     1      12.746   4.447  90.963  1.00  0.00     0.254 C 
HETATM   23  O   UNL     1      13.088   3.777  89.991  1.00  0.00    -0.268 OA
HETATM   24  N   UNL     1      13.377   4.429  92.199  1.00  0.00    -0.335 N 
HETATM   25  HN  UNL     1      13.054   5.029  92.949  1.00  0.00     0.164 HD
BRANCH  24  26
HETATM   26  C   UNL     1      14.524   3.600  92.472  1.00  0.00     0.166 C 
BRANCH  26  27
HETATM   27  C   UNL     1      15.438   4.190  93.553  1.00  0.00     0.138 C 
HETATM   28  C   UNL     1      16.621   3.283  93.876  1.00  0.00     0.034 C 
BRANCH  27  29
HETATM   29  O   UNL     1      15.932   5.458  93.122  1.00  0.00    -0.383 OA
HETATM   30  H   UNL     1      16.899   5.400  93.049  1.00  0.00     0.210 HD
ENDBRANCH  27  29
ENDBRANCH  26  27
BRANCH  26  31
HETATM   31  C   UNL     1      14.016   2.218  92.869  1.00  0.00     0.181 C 
HETATM   32  O   UNL     1      14.703   1.402  93.480  1.00  0.00    -0.294 OA
BRANCH  31  33
HETATM   33  C   UNL     1      12.603   2.300  93.659  1.00  0.00     0.138 C 
BRANCH  33  34
HETATM   34  C   UNL     1      11.691   2.004  92.621  1.00  0.00     0.208 C 
HETATM   35  O   UNL     1      12.083   1.238  91.771  1.00  0.00    -0.289 OA
BRANCH  34  36
HETATM   36  C   UNL     1      10.340   2.201  92.544  1.00  0.00     0.194 C 
HETATM   37  O   UNL     1       9.597   3.075  91.742  1.00  0.00    -0.185 OA
ENDBRANCH  34  36
ENDBRANCH  33  34
ENDBRANCH  31  33
ENDBRANCH  26  31
ENDBRANCH  24  26
ENDBRANCH  19  22
ENDBRANCH  15  16
ENDBRANCH  11  14
ENDBRANCH   7   8
ENDBRANCH   2   7
TORSDOF 12
ENDMDL
MODEL 5
REMARK VINA RESULT:      -3.0      2.380      3.982
REMARK  12 active torsions:
REMARK  status: ('A' for Active; 'I' for Inactive)
REMARK    1  A    between atoms: O_2  and  C_16 
REMARK    2  A    between atoms: N_5  and  C_9 
REMARK    3  A    between atoms: N_6  and  C_13 
REMARK       I    between atoms: N_6  and  C_22 
REMARK    4  A    between atoms: C_9  and  C_12 
REMARK    5  A    between atoms: C_13  and  C_16 
REMARK    6  A    between atoms: C_13  and  C_21 
REMARK    7  A    between atoms: C_19  and  C_24 
REMARK    8  A    between atoms: C_21  and  C_33 
REMARK    9  A    between atoms: C_22  and  C_23 
REMARK   10  A    between atoms: C_27  and  C_30 
REMARK   11  A    between atoms: C_33  and  C_34 
REMARK   12  A    between atoms: C_34  and  C_35 
ROOT
HETATM    1  O   UNL     1       3.070  15.418  92.106  1.00  0.00    -0.350 OA
HETATM    2  N   UNL     1       1.409  13.461  93.336  1.00  0.00     0.147 N 
HETATM    3  C   UNL     1       2.336  14.286  94.123  1.00  0.00     0.283 C 
HETATM    4  C   UNL     1       1.928  13.282  91.973  1.00  0.00     0.283 C 
HETATM    5  C   UNL     1       2.558  15.625  93.423  1.00  0.00     0.178 C 
HETATM    6  C   UNL     1       2.160  14.643  91.324  1.00  0.00     0.178 C 
ENDROOT
BRANCH   2   7
HETATM    7  C   UNL     1       1.189  12.169  93.983  1.00  0.00     0.277 C 
BRANCH   7   8
HETATM    8  C   UNL     1       2.390  11.288  93.913  1.00  0.00     0.011 A 
HETATM    9  C   UNL     1       2.240   9.901  93.965  1.00  0.00    -0.002 A 
HETATM   10  C   UNL     1       3.363   9.076  93.902  1.00  0.00     0.008 A 
HETATM   11  C   UNL     1       4.634   9.638  93.786  1.00  0.00     0.042 A 
HETATM   12  C   UNL     1       4.784  11.022  93.734  1.00  0.00     0.008 A 
HETATM   13  C   UNL     1       3.662  11.848  93.797  1.00  0.00    -0.002 A 
BRANCH  11  14
HETATM   14  C   UNL     1       5.785   8.791  93.719  1.00  0.00    -0.059 C 
HETATM   15  C   UNL     1       6.753   8.080  93.664  1.00  0.00    -0.059 C 
BRANCH  15  16
HETATM   16  C   UNL     1       7.903   7.233  93.598  1.00  0.00     0.042 A 
HETATM   17  C   UNL     1       9.129   7.755  93.184  1.00  0.00     0.008 A 
HETATM   18  C   UNL     1      10.252   6.930  93.123  1.00  0.00     0.005 A 
HETATM   19  C   UNL     1      10.125   5.603  93.478  1.00  0.00     0.056 A 
HETATM   20  C   UNL     1       8.924   5.063  93.890  1.00  0.00     0.005 A 
HETATM   21  C   UNL     1       7.800   5.888  93.951  1.00  0.00     0.008 A 
BRANCH  19  22
HETATM   22  C   UNL     1      11.321   4.724  93.410  1.00  0.00     0.254 C 
HETATM   23  O   UNL     1      11.369   3.722  94.119  1.00  0.00    -0.268 OA
HETATM   24  N   UNL     1      12.304   5.104  92.508  1.00  0.00    -0.335 N 
HETATM   25  HN  UNL     1      12.184   5.932  91.937  1.00  0.00     0.164 HD
BRANCH  24  26
HETATM   26  C   UNL     1      13.511   4.342  92.310  1.00  0.00     0.166 C 
BRANCH  26  27
HETATM   27  C   UNL     1      14.094   3.802  93.622  1.00  0.00     0.138 C 
HETATM   28  C   UNL     1      14.347   2.299  93.574  1.00  0.00     0.034 C 
BRANCH  27  29
HETATM   29  O   UNL     1      15.323   4.469  93.909  1.00  0.00    -0.383 OA
HETATM   30  H   UNL     1      15.414   5.217  93.295  1.00  0.00     0.210 HD
ENDBRANCH  27  29
ENDBRANCH  26  27
BRANCH  26  31
HETATM   31  C   UNL     1      13.194   3.211  91.337  1.00  0.00     0.181 C 
HETATM   32  O   UNL     1      12.248   2.441  91.492  1.00  0.00    -0.294 OA
BRANCH  31  33
HETATM   33  C   UNL     1      13.101   3.741  89.808  1.00  0.00     0.138 C 
BRANCH  33  34
HETATM   34  C   UNL     1      11.732   4.080  89.719  1.00  0.00     0.208 C 
HETATM   35  O   UNL     1      11.486   5.242  89.488  1.00  0.00    -0.289 OA
BRANCH  34  36
HETATM   36  C   UNL     1      10.629   3.287  89.564  1.00  0.00     0.194 C 
HETATM   37  O   UNL     1       9.996   2.836  88.401  1.00  0.00    -0.185 OA
ENDBRANCH  34  36
ENDBRANCH  33  34
ENDBRANCH  31  33
ENDBRANCH  26  31
ENDBRANCH  24  26
ENDBRANCH  19  22
ENDBRANCH  15  16
ENDBRANCH  11  14
ENDBRANCH   7   8
ENDBRANCH   2   7
TORSDOF 12
ENDMDL
MODEL 6
REMARK VINA RESULT:      -2.9      1.297      2.034
REMARK  12 active torsions:
REMARK  status: ('A' for Active; 'I' for Inactive)
REMARK    1  A    between atoms: O_2  and  C_16 
REMARK    2  A    between atoms: N_5  and  C_9 
REMARK    3  A    between atoms: N_6  and  C_13 
REMARK       I    between atoms: N_6  and  C_22 
REMARK    4  A    between atoms: C_9  and  C_12 
REMARK    5  A    between atoms: C_13  and  C_16 
REMARK    6  A    between atoms: C_13  and  C_21 
REMARK    7  A    between atoms: C_19  and  C_24 
REMARK    8  A    between atoms: C_21  and  C_33 
REMARK    9  A    between atoms: C_22  and  C_23 
REMARK   10  A    between atoms: C_27  and  C_30 
REMARK   11  A    between atoms: C_33  and  C_34 
REMARK   12  A    between atoms: C_34  and  C_35 
ROOT
HETATM    1  O   UNL     1       2.464  14.391  94.124  1.00  0.00    -0.350 OA
HETATM    2  N   UNL     1       2.333  14.522  91.284  1.00  0.00     0.147 N 
HETATM    3  C   UNL     1       1.515  13.569  92.047  1.00  0.00     0.283 C 
HETATM    4  C   UNL     1       3.577  14.813  92.010  1.00  0.00     0.283 C 
HETATM    5  C   UNL     1       1.238  14.126  93.441  1.00  0.00     0.178 C 
HETATM    6  C   UNL     1       3.251  15.340  93.404  1.00  0.00     0.178 C 
ENDROOT
BRANCH   2   7
HETATM    7  C   UNL     1       2.620  14.004  89.947  1.00  0.00     0.277 C 
BRANCH   7   8
HETATM    8  C   UNL     1       3.613  12.892  89.971  1.00  0.00     0.011 A 
HETATM    9  C   UNL     1       4.941  13.136  89.618  1.00  0.00    -0.002 A 
HETATM   10  C   UNL     1       5.870  12.096  89.638  1.00  0.00     0.008 A 
HETATM   11  C   UNL     1       5.471  10.813  90.012  1.00  0.00     0.042 A 
HETATM   12  C   UNL     1       4.145  10.568  90.365  1.00  0.00     0.008 A 
HETATM   13  C   UNL     1       3.216  11.608  90.344  1.00  0.00    -0.002 A 
BRANCH  11  14
HETATM   14  C   UNL     1       6.425   9.746  90.034  1.00  0.00    -0.059 C 
HETATM   15  C   UNL     1       7.226   8.850  90.052  1.00  0.00    -0.059 C 
BRANCH  15  16
HETATM   16  C   UNL     1       8.179   7.784  90.074  1.00  0.00     0.042 A 
HETATM   17  C   UNL     1       9.483   8.008  89.633  1.00  0.00     0.008 A 
HETATM   18  C   UNL     1      10.414   6.969  89.657  1.00  0.00     0.005 A 
HETATM   19  C   UNL     1      10.020   5.732  90.120  1.00  0.00     0.056 A 
HETATM   20  C   UNL     1       8.736   5.485  90.560  1.00  0.00     0.005 A 
HETATM   21  C   UNL     1       7.805   6.523  90.537  1.00  0.00     0.008 A 
BRANCH  19  22
HETATM   22  C   UNL     1      11.011   4.625  90.143  1.00  0.00     0.254 C 
HETATM   23  O   UNL     1      10.966   3.762  89.269  1.00  0.00    -0.268 OA
HETATM   24  N   UNL     1      11.949   4.669  91.165  1.00  0.00    -0.335 N 
HETATM   25  HN  UNL     1      11.939   5.428  91.837  1.00  0.00     0.164 HD
BRANCH  24  26
HETATM   26  C   UNL     1      12.988   3.682  91.307  1.00  0.00     0.166 C 
BRANCH  26  27
HETATM   27  C   UNL     1      14.149   3.898  90.328  1.00  0.00     0.138 C 
HETATM   28  C   UNL     1      15.458   3.302  90.834  1.00  0.00     0.034 C 
BRANCH  27  29
HETATM   29  O   UNL     1      13.828   3.307  89.069  1.00  0.00    -0.383 OA
HETATM   30  H   UNL     1      14.522   2.663  88.848  1.00  0.00     0.210 HD
ENDBRANCH  27  29
ENDBRANCH  26  27
BRANCH  26  31
HETATM   31  C   UNL     1      13.470   3.717  92.754  1.00  0.00     0.181 C 
HETATM   32  O   UNL     1      13.767   4.759  93.335  1.00  0.00    -0.294 OA
BRANCH  31  33
HETATM   33  C   UNL     1      12.463   2.919  93.743  1.00  0.00     0.138 C 
BRANCH  33  34
HETATM   34  C   UNL     1      11.241   3.576  93.478  1.00  0.00     0.208 C 
HETATM   35  O   UNL     1      10.414   2.937  92.870  1.00  0.00    -0.289 OA
BRANCH  34  36
HETATM   36  C   UNL     1      10.705   4.708  94.027  1.00  0.00     0.194 C 
HETATM   37  O   UNL     1      10.616   6.008  93.515  1.00  0.00    -0.185 OA
ENDBRANCH  34  36
ENDBRANCH  33  34
ENDBRANCH  31  33
ENDBRANCH  26  31
ENDBRANCH  24  26
ENDBRANCH  19  22
ENDBRANCH  15  16
ENDBRANCH  11  14
ENDBRANCH   7   8
ENDBRANCH   2   7
TORSDOF 12
ENDMDL
MODEL 7
REMARK VINA RESULT:      -2.8      1.372      2.890
REMARK  12 active torsions:
REMARK  status: ('A' for Active; 'I' for Inactive)
REMARK    1  A    between atoms: O_2  and  C_16 
REMARK    2  A    between atoms: N_5  and  C_9 
REMARK    3  A    between atoms: N_6  and  C_13 
REMARK       I    between atoms: N_6  and  C_22 
REMARK    4  A    between atoms: C_9  and  C_12 
REMARK    5  A    between atoms: C_13  and  C_16 
REMARK    6  A    between atoms: C_13  and  C_21 
REMARK    7  A    between atoms: C_19  and  C_24 
REMARK    8  A    between atoms: C_21  and  C_33 
REMARK    9  A    between atoms: C_22  and  C_23 
REMARK   10  A    between atoms: C_27  and  C_30 
REMARK   11  A    between atoms: C_33  and  C_34 
REMARK   12  A    between atoms: C_34  and  C_35 
ROOT
HETATM    1  O   UNL     1       1.806  15.625  93.928  1.00  0.00    -0.350 OA
HETATM    2  N   UNL     1       3.099  13.990  91.989  1.00  0.00     0.147 N 
HETATM    3  C   UNL     1       3.725  15.218  92.498  1.00  0.00     0.283 C 
HETATM    4  C   UNL     1       1.635  14.113  92.038  1.00  0.00     0.283 C 
HETATM    5  C   UNL     1       3.229  15.502  93.914  1.00  0.00     0.178 C 
HETATM    6  C   UNL     1       1.189  14.424  93.463  1.00  0.00     0.178 C 
ENDROOT
BRANCH   2   7
HETATM    7  C   UNL     1       3.551  13.704  90.629  1.00  0.00     0.277 C 
BRANCH   7   8
HETATM    8  C   UNL     1       4.578  12.624  90.587  1.00  0.00     0.011 A 
HETATM    9  C   UNL     1       4.817  11.845  91.720  1.00  0.00    -0.002 A 
HETATM   10  C   UNL     1       5.779  10.836  91.683  1.00  0.00     0.008 A 
HETATM   11  C   UNL     1       6.500  10.605  90.512  1.00  0.00     0.042 A 
HETATM   12  C   UNL     1       6.262  11.381  89.380  1.00  0.00     0.008 A 
HETATM   13  C   UNL     1       5.301  12.391  89.417  1.00  0.00    -0.002 A 
BRANCH  11  14
HETATM   14  C   UNL     1       7.485   9.568  90.474  1.00  0.00    -0.059 C 
HETATM   15  C   UNL     1       8.314   8.697  90.442  1.00  0.00    -0.059 C 
BRANCH  15  16
HETATM   16  C   UNL     1       9.298   7.661  90.404  1.00  0.00     0.042 A 
HETATM   17  C   UNL     1       9.831   7.163  91.593  1.00  0.00     0.008 A 
HETATM   18  C   UNL     1      10.790   6.151  91.556  1.00  0.00     0.005 A 
HETATM   19  C   UNL     1      11.193   5.658  90.333  1.00  0.00     0.056 A 
HETATM   20  C   UNL     1      10.681   6.134  89.143  1.00  0.00     0.005 A 
HETATM   21  C   UNL     1       9.723   7.147  89.179  1.00  0.00     0.008 A 
BRANCH  19  22
HETATM   22  C   UNL     1      12.215   4.581  90.294  1.00  0.00     0.254 C 
HETATM   23  O   UNL     1      12.412   3.978  89.242  1.00  0.00    -0.268 OA
HETATM   24  N   UNL     1      12.903   4.352  91.478  1.00  0.00    -0.335 N 
HETATM   25  HN  UNL     1      12.704   4.908  92.302  1.00  0.00     0.164 HD
BRANCH  24  26
HETATM   26  C   UNL     1      13.940   3.359  91.593  1.00  0.00     0.166 C 
BRANCH  26  27
HETATM   27  C   UNL     1      15.203   3.896  92.278  1.00  0.00     0.138 C 
HETATM   28  C   UNL     1      14.888   4.694  93.539  1.00  0.00     0.034 C 
BRANCH  27  29
HETATM   29  O   UNL     1      16.059   2.807  92.621  1.00  0.00    -0.383 OA
HETATM   30  H   UNL     1      15.962   2.630  93.572  1.00  0.00     0.210 HD
ENDBRANCH  27  29
ENDBRANCH  26  27
BRANCH  26  31
HETATM   31  C   UNL     1      13.362   2.167  92.349  1.00  0.00     0.181 C 
HETATM   32  O   UNL     1      13.276   2.131  93.576  1.00  0.00    -0.294 OA
BRANCH  31  33
HETATM   33  C   UNL     1      11.905   1.742  91.781  1.00  0.00     0.138 C 
BRANCH  33  34
HETATM   34  C   UNL     1      11.056   2.538  92.582  1.00  0.00     0.208 C 
HETATM   35  O   UNL     1      11.548   2.995  93.588  1.00  0.00    -0.289 OA
BRANCH  34  36
HETATM   36  C   UNL     1       9.856   3.127  92.290  1.00  0.00     0.194 C 
HETATM   37  O   UNL     1       9.118   3.135  91.101  1.00  0.00    -0.185 OA
ENDBRANCH  34  36
ENDBRANCH  33  34
ENDBRANCH  31  33
ENDBRANCH  26  31
ENDBRANCH  24  26
ENDBRANCH  19  22
ENDBRANCH  15  16
ENDBRANCH  11  14
ENDBRANCH   7   8
ENDBRANCH   2   7
TORSDOF 12
ENDMDL
MODEL 8
REMARK VINA RESULT:      -2.8      2.041      2.545
REMARK  12 active torsions:
REMARK  status: ('A' for Active; 'I' for Inactive)
REMARK    1  A    between atoms: O_2  and  C_16 
REMARK    2  A    between atoms: N_5  and  C_9 
REMARK    3  A    between atoms: N_6  and  C_13 
REMARK       I    between atoms: N_6  and  C_22 
REMARK    4  A    between atoms: C_9  and  C_12 
REMARK    5  A    between atoms: C_13  and  C_16 
REMARK    6  A    between atoms: C_13  and  C_21 
REMARK    7  A    between atoms: C_19  and  C_24 
REMARK    8  A    between atoms: C_21  and  C_33 
REMARK    9  A    between atoms: C_22  and  C_23 
REMARK   10  A    between atoms: C_27  and  C_30 
REMARK   11  A    between atoms: C_33  and  C_34 
REMARK   12  A    between atoms: C_34  and  C_35 
ROOT
HETATM    1  O   UNL     1       3.336  14.774  90.439  1.00  0.00    -0.350 OA
HETATM    2  N   UNL     1       2.398  13.786  92.939  1.00  0.00     0.147 N 
HETATM    3  C   UNL     1       3.758  14.321  92.786  1.00  0.00     0.283 C 
HETATM    4  C   UNL     1       1.934  13.219  91.665  1.00  0.00     0.283 C 
HETATM    5  C   UNL     1       3.783  15.357  91.665  1.00  0.00     0.178 C 
HETATM    6  C   UNL     1       2.003  14.279  90.570  1.00  0.00     0.178 C 
ENDROOT
BRANCH   2   7
HETATM    7  C   UNL     1       2.353  12.783  94.001  1.00  0.00     0.277 C 
BRANCH   7   8
HETATM    8  C   UNL     1       3.342  11.688  93.791  1.00  0.00     0.011 A 
HETATM    9  C   UNL     1       4.683  11.887  94.123  1.00  0.00    -0.002 A 
HETATM   10  C   UNL     1       5.610  10.864  93.925  1.00  0.00     0.008 A 
HETATM   11  C   UNL     1       5.195   9.642  93.397  1.00  0.00     0.042 A 
HETATM   12  C   UNL     1       3.856   9.442  93.066  1.00  0.00     0.008 A 
HETATM   13  C   UNL     1       2.929  10.465  93.263  1.00  0.00    -0.002 A 
BRANCH  11  14
HETATM   14  C   UNL     1       6.145   8.591  93.196  1.00  0.00    -0.059 C 
HETATM   15  C   UNL     1       6.944   7.708  93.027  1.00  0.00    -0.059 C 
BRANCH  15  16
HETATM   16  C   UNL     1       7.894   6.659  92.825  1.00  0.00     0.042 A 
HETATM   17  C   UNL     1       7.940   5.987  91.603  1.00  0.00     0.008 A 
HETATM   18  C   UNL     1       8.869   4.966  91.406  1.00  0.00     0.005 A 
HETATM   19  C   UNL     1       9.729   4.639  92.432  1.00  0.00     0.056 A 
HETATM   20  C   UNL     1       9.703   5.288  93.649  1.00  0.00     0.005 A 
HETATM   21  C   UNL     1       8.775   6.309  93.848  1.00  0.00     0.008 A 
BRANCH  19  22
HETATM   22  C   UNL     1      10.717   3.549  92.222  1.00  0.00     0.254 C 
HETATM   23  O   UNL     1      10.348   2.380  92.309  1.00  0.00    -0.268 OA
HETATM   24  N   UNL     1      12.009   3.951  91.912  1.00  0.00    -0.335 N 
HETATM   25  HN  UNL     1      12.235   4.935  91.833  1.00  0.00     0.164 HD
BRANCH  24  26
HETATM   26  C   UNL     1      13.072   3.013  91.656  1.00  0.00     0.166 C 
BRANCH  26  27
HETATM   27  C   UNL     1      14.342   3.687  91.121  1.00  0.00     0.138 C 
HETATM   28  C   UNL     1      14.533   3.467  89.625  1.00  0.00     0.034 C 
BRANCH  27  29
HETATM   29  O   UNL     1      14.284   5.089  91.381  1.00  0.00    -0.383 OA
HETATM   30  H   UNL     1      13.495   5.448  90.941  1.00  0.00     0.210 HD
ENDBRANCH  27  29
ENDBRANCH  26  27
BRANCH  26  31
HETATM   31  C   UNL     1      13.349   2.258  92.952  1.00  0.00     0.181 C 
HETATM   32  O   UNL     1      14.057   1.254  93.004  1.00  0.00    -0.294 OA
BRANCH  31  33
HETATM   33  C   UNL     1      13.879   3.246  94.123  1.00  0.00     0.138 C 
BRANCH  33  34
HETATM   34  C   UNL     1      15.278   3.111  93.982  1.00  0.00     0.208 C 
HETATM   35  O   UNL     1      15.668   2.071  93.503  1.00  0.00    -0.289 OA
BRANCH  34  36
HETATM   36  C   UNL     1      16.269   4.054  94.024  1.00  0.00     0.194 C 
HETATM   37  O   UNL     1      16.210   5.437  93.816  1.00  0.00    -0.185 OA
ENDBRANCH  34  36
ENDBRANCH  33  34
ENDBRANCH  31  33
ENDBRANCH  26  31
ENDBRANCH  24  26
ENDBRANCH  19  22
ENDBRANCH  15  16
ENDBRANCH  11  14
ENDBRANCH   7   8
ENDBRANCH   2   7
TORSDOF 12
ENDMDL
