MODEL 1
REMARK VINA RESULT:      -7.6      0.000      0.000
REMARK  9 active torsions:
REMARK  status: ('A' for Active; 'I' for Inactive)
REMARK    1  A    between atoms: N_3  and  C_6 
REMARK    2  A    between atoms: C_6  and  C_9 
REMARK    3  A    between atoms: C_14  and  C_17 
REMARK       I    between atoms: N_26  and  C_15 
REMARK    4  A    between atoms: C_15  and  C_16 
REMARK    5  A    between atoms: C_20  and  C_23 
REMARK    6  A    between atoms: OG1_24  and  CB_28 
REMARK    7  A    between atoms: N_26  and  CA_27 
REMARK    8  A    between atoms: CA_27  and  CB_28 
REMARK    9  A    between atoms: CA_27  and  C_30 
ROOT
HETATM    1  O   UNK A   0       1.907   8.134  87.846  1.00  0.00    -0.388 OA
HETATM    2  N   UNK A   0       4.694   7.580  87.684  1.00  0.00     0.096 N 
HETATM    3  C   UNK A   0       4.189   8.956  87.785  1.00  0.00     0.299 C 
HETATM    4  C   UNK A   0       3.700   6.727  87.016  1.00  0.00     0.299 C 
HETATM    5  C   UNK A   0       2.853   8.963  88.523  1.00  0.00     0.198 C 
HETATM    6  C   UNK A   0       2.376   6.787  87.770  1.00  0.00     0.198 C 
ENDROOT
BRANCH   2   7
HETATM    7  C   UNK A   0       5.970   7.547  86.971  1.00  0.00     0.311 C 
BRANCH   7   8
HETATM    8  C   UNK A   0       7.061   6.941  87.786  1.00  0.00    -0.030 A 
HETATM    9  C   UNK A   0       8.310   6.704  87.211  1.00  0.00     0.010 A 
HETATM   10  C   UNK A   0       9.331   6.135  87.972  1.00  0.00     0.021 A 
HETATM   11  C   UNK A   0       9.102   5.804  89.308  1.00  0.00     0.018 A 
HETATM   12  C   UNK A   0       7.855   6.041  89.883  1.00  0.00     0.021 A 
HETATM   13  C   UNK A   0       6.834   6.609  89.122  1.00  0.00     0.010 A 
BRANCH  11  14
HETATM   14  C   UNK A   0      10.150   5.222  90.089  1.00  0.00    -0.061 C 
HETATM   15  C   UNK A   0      11.030   4.733  90.746  1.00  0.00    -0.061 C 
BRANCH  15  16
HETATM   16  C   UNK A   0      12.077   4.151  91.527  1.00  0.00     0.018 A 
HETATM   17  C   UNK A   0      11.837   3.788  92.853  1.00  0.00     0.022 A 
HETATM   18  C   UNK A   0      12.858   3.218  93.613  1.00  0.00     0.018 A 
HETATM   19  C   UNK A   0      14.093   3.022  93.032  1.00  0.00     0.032 A 
HETATM   20  C   UNK A   0      14.355   3.373  91.724  1.00  0.00     0.018 A 
HETATM   21  C   UNK A   0      13.336   3.943  90.962  1.00  0.00     0.022 A 
BRANCH  19  22
HETATM   22  C   UNK A   0      15.180   2.416  93.844  1.00  0.00     0.252 C 
HETATM   23  O   UNK A   0      16.336   2.801  93.681  1.00  0.00    -0.268 OA
ENDBRANCH  19  22
ENDBRANCH  15  16
ENDBRANCH  11  14
ENDBRANCH   7   8
ENDBRANCH   2   7
TORSDOF 9
ENDMDL
MODEL 2
REMARK VINA RESULT:      -7.5      0.061      1.426
REMARK  9 active torsions:
REMARK  status: ('A' for Active; 'I' for Inactive)
REMARK    1  A    between atoms: N_3  and  C_6 
REMARK    2  A    between atoms: C_6  and  C_9 
REMARK    3  A    between atoms: C_14  and  C_17 
REMARK       I    between atoms: N_26  and  C_15 
REMARK    4  A    between atoms: C_15  and  C_16 
REMARK    5  A    between atoms: C_20  and  C_23 
REMARK    6  A    between atoms: OG1_24  and  CB_28 
REMARK    7  A    between atoms: N_26  and  CA_27 
REMARK    8  A    between atoms: CA_27  and  CB_28 
REMARK    9  A    between atoms: CA_27  and  C_30 
ROOT
HETATM    1  O   UNK A   0       1.868   8.023  87.833  1.00  0.00    -0.388 OA
HETATM    2  N   UNK A   0       4.669   7.540  87.683  1.00  0.00     0.096 N 
HETATM    3  C   UNK A   0       4.130   8.902  87.795  1.00  0.00     0.299 C 
HETATM    4  C   UNK A   0       3.701   6.670  87.001  1.00  0.00     0.299 C 
HETATM    5  C   UNK A   0       2.789   8.869  88.524  1.00  0.00     0.198 C 
HETATM    6  C   UNK A   0       2.371   6.690  87.747  1.00  0.00     0.198 C 
ENDROOT
BRANCH   2   7
HETATM    7  C   UNK A   0       5.950   7.546  86.978  1.00  0.00     0.311 C 
BRANCH   7   8
HETATM    8  C   UNK A   0       7.047   6.943  87.788  1.00  0.00    -0.030 A 
HETATM    9  C   UNK A   0       6.840   6.658  89.138  1.00  0.00     0.010 A 
HETATM   10  C   UNK A   0       7.866   6.096  89.898  1.00  0.00     0.021 A 
HETATM   11  C   UNK A   0       9.098   5.818  89.306  1.00  0.00     0.018 A 
HETATM   12  C   UNK A   0       9.306   6.103  87.958  1.00  0.00     0.021 A 
HETATM   13  C   UNK A   0       8.280   6.665  87.198  1.00  0.00     0.010 A 
BRANCH  11  14
HETATM   14  C   UNK A   0      10.150   5.240  90.084  1.00  0.00    -0.061 C 
HETATM   15  C   UNK A   0      11.035   4.754  90.738  1.00  0.00    -0.061 C 
BRANCH  15  16
HETATM   16  C   UNK A   0      12.087   4.177  91.515  1.00  0.00     0.018 A 
HETATM   17  C   UNK A   0      13.352   4.001  90.954  1.00  0.00     0.022 A 
HETATM   18  C   UNK A   0      14.378   3.440  91.713  1.00  0.00     0.018 A 
HETATM   19  C   UNK A   0      14.118   3.069  93.016  1.00  0.00     0.032 A 
HETATM   20  C   UNK A   0      12.876   3.232  93.593  1.00  0.00     0.018 A 
HETATM   21  C   UNK A   0      11.849   3.793  92.835  1.00  0.00     0.022 A 
BRANCH  19  22
HETATM   22  C   UNK A   0      15.212   2.470  93.824  1.00  0.00     0.252 C 
HETATM   23  O   UNK A   0      16.368   2.840  93.636  1.00  0.00    -0.268 OA
ENDBRANCH  19  22
ENDBRANCH  15  16
ENDBRANCH  11  14
ENDBRANCH   7   8
ENDBRANCH   2   7
TORSDOF 9
ENDMDL
MODEL 3
REMARK VINA RESULT:      -7.5      0.416      1.090
REMARK  9 active torsions:
REMARK  status: ('A' for Active; 'I' for Inactive)
REMARK    1  A    between atoms: N_3  and  C_6 
REMARK    2  A    between atoms: C_6  and  C_9 
REMARK    3  A    between atoms: C_14  and  C_17 
REMARK       I    between atoms: N_26  and  C_15 
REMARK    4  A    between atoms: C_15  and  C_16 
REMARK    5  A    between atoms: C_20  and  C_23 
REMARK    6  A    between atoms: OG1_24  and  CB_28 
REMARK    7  A    between atoms: N_26  and  CA_27 
REMARK    8  A    between atoms: CA_27  and  CB_28 
REMARK    9  A    between atoms: CA_27  and  C_30 
ROOT
HETATM    1  O   UNK A   0       1.906   8.907  88.257  1.00  0.00    -0.388 OA
HETATM    2  N   UNK A   0       4.522   7.859  87.858  1.00  0.00     0.096 N 
HETATM    3  C   UNK A   0       4.268   9.306  87.865  1.00  0.00     0.299 C 
HETATM    4  C   UNK A   0       3.326   7.140  87.395  1.00  0.00     0.299 C 
HETATM    5  C   UNK A   0       3.052   9.613  88.737  1.00  0.00     0.198 C 
HETATM    6  C   UNK A   0       2.134   7.498  88.276  1.00  0.00     0.198 C 
ENDROOT
BRANCH   2   7
HETATM    7  C   UNK A   0       5.676   7.540  87.020  1.00  0.00     0.311 C 
BRANCH   7   8
HETATM    8  C   UNK A   0       6.799   6.948  87.801  1.00  0.00    -0.030 A 
HETATM    9  C   UNK A   0       8.073   6.866  87.237  1.00  0.00     0.010 A 
HETATM   10  C   UNK A   0       9.124   6.310  87.966  1.00  0.00     0.021 A 
HETATM   11  C   UNK A   0       8.901   5.839  89.260  1.00  0.00     0.018 A 
HETATM   12  C   UNK A   0       7.630   5.921  89.824  1.00  0.00     0.021 A 
HETATM   13  C   UNK A   0       6.578   6.476  89.095  1.00  0.00     0.010 A 
BRANCH  11  14
HETATM   14  C   UNK A   0       9.980   5.271  90.009  1.00  0.00    -0.061 C 
HETATM   15  C   UNK A   0      10.886   4.792  90.638  1.00  0.00    -0.061 C 
BRANCH  15  16
HETATM   16  C   UNK A   0      11.964   4.224  91.386  1.00  0.00     0.018 A 
HETATM   17  C   UNK A   0      13.212   4.052  90.787  1.00  0.00     0.022 A 
HETATM   18  C   UNK A   0      14.264   3.500  91.518  1.00  0.00     0.018 A 
HETATM   19  C   UNK A   0      14.045   3.133  92.829  1.00  0.00     0.032 A 
HETATM   20  C   UNK A   0      12.820   3.292  93.443  1.00  0.00     0.018 A 
HETATM   21  C   UNK A   0      11.767   3.844  92.713  1.00  0.00     0.022 A 
BRANCH  19  22
HETATM   22  C   UNK A   0      15.166   2.543  93.606  1.00  0.00     0.252 C 
HETATM   23  O   UNK A   0      16.174   3.215  93.809  1.00  0.00    -0.268 OA
ENDBRANCH  19  22
ENDBRANCH  15  16
ENDBRANCH  11  14
ENDBRANCH   7   8
ENDBRANCH   2   7
TORSDOF 9
ENDMDL
MODEL 4
REMARK VINA RESULT:      -7.0      1.438      2.267
REMARK  9 active torsions:
REMARK  status: ('A' for Active; 'I' for Inactive)
REMARK    1  A    between atoms: N_3  and  C_6 
REMARK    2  A    between atoms: C_6  and  C_9 
REMARK    3  A    between atoms: C_14  and  C_17 
REMARK       I    between atoms: N_26  and  C_15 
REMARK    4  A    between atoms: C_15  and  C_16 
REMARK    5  A    between atoms: C_20  and  C_23 
REMARK    6  A    between atoms: OG1_24  and  CB_28 
REMARK    7  A    between atoms: N_26  and  CA_27 
REMARK    8  A    between atoms: CA_27  and  CB_28 
REMARK    9  A    between atoms: CA_27  and  C_30 
ROOT
HETATM    1  O   UNK A   0       4.922  11.189  88.654  1.00  0.00    -0.388 OA
HETATM    2  N   UNK A   0       5.270   8.364  88.659  1.00  0.00     0.096 N 
HETATM    3  C   UNK A   0       6.394   9.277  88.909  1.00  0.00     0.299 C 
HETATM    4  C   UNK A   0       4.276   9.015  87.795  1.00  0.00     0.299 C 
HETATM    5  C   UNK A   0       5.879  10.577  89.521  1.00  0.00     0.198 C 
HETATM    6  C   UNK A   0       3.811  10.321  88.432  1.00  0.00     0.198 C 
ENDROOT
BRANCH   2   7
HETATM    7  C   UNK A   0       5.739   7.115  88.063  1.00  0.00     0.311 C 
BRANCH   7   8
HETATM    8  C   UNK A   0       6.929   6.560  88.770  1.00  0.00    -0.030 A 
HETATM    9  C   UNK A   0       6.800   6.068  90.069  1.00  0.00     0.010 A 
HETATM   10  C   UNK A   0       7.913   5.551  90.732  1.00  0.00     0.021 A 
HETATM   11  C   UNK A   0       9.153   5.524  90.095  1.00  0.00     0.018 A 
HETATM   12  C   UNK A   0       9.282   6.014  88.797  1.00  0.00     0.021 A 
HETATM   13  C   UNK A   0       8.170   6.533  88.134  1.00  0.00     0.010 A 
BRANCH  11  14
HETATM   14  C   UNK A   0      10.293   4.991  90.774  1.00  0.00    -0.061 C 
HETATM   15  C   UNK A   0      11.252   4.543  91.346  1.00  0.00    -0.061 C 
BRANCH  15  16
HETATM   16  C   UNK A   0      12.391   4.010  92.025  1.00  0.00     0.018 A 
HETATM   17  C   UNK A   0      13.606   3.879  91.351  1.00  0.00     0.022 A 
HETATM   18  C   UNK A   0      14.718   3.362  92.015  1.00  0.00     0.018 A 
HETATM   19  C   UNK A   0      14.591   2.987  93.337  1.00  0.00     0.032 A 
HETATM   20  C   UNK A   0      13.402   3.106  94.024  1.00  0.00     0.018 A 
HETATM   21  C   UNK A   0      12.289   3.623  93.362  1.00  0.00     0.022 A 
BRANCH  19  22
HETATM   22  C   UNK A   0      15.776   2.434  94.043  1.00  0.00     0.252 C 
HETATM   23  O   UNK A   0      16.900   2.780  93.689  1.00  0.00    -0.268 OA
ENDBRANCH  19  22
ENDBRANCH  15  16
ENDBRANCH  11  14
ENDBRANCH   7   8
ENDBRANCH   2   7
TORSDOF 9
ENDMDL
MODEL 5
REMARK VINA RESULT:      -6.8      1.687      2.284
REMARK  9 active torsions:
REMARK  status: ('A' for Active; 'I' for Inactive)
REMARK    1  A    between atoms: N_3  and  C_6 
REMARK    2  A    between atoms: C_6  and  C_9 
REMARK    3  A    between atoms: C_14  and  C_17 
REMARK       I    between atoms: N_26  and  C_15 
REMARK    4  A    between atoms: C_15  and  C_16 
REMARK    5  A    between atoms: C_20  and  C_23 
REMARK    6  A    between atoms: OG1_24  and  CB_28 
REMARK    7  A    between atoms: N_26  and  CA_27 
REMARK    8  A    between atoms: CA_27  and  CB_28 
REMARK    9  A    between atoms: CA_27  and  C_30 
ROOT
HETATM    1  O   UNK A   0       3.283  11.765  89.834  1.00  0.00    -0.388 OA
HETATM    2  N   UNK A   0       4.819   9.591  88.825  1.00  0.00     0.096 N 
HETATM    3  C   UNK A   0       3.903  10.350  87.962  1.00  0.00     0.299 C 
HETATM    4  C   UNK A   0       4.337   9.613  90.213  1.00  0.00     0.299 C 
HETATM    5  C   UNK A   0       3.760  11.776  88.487  1.00  0.00     0.198 C 
HETATM    6  C   UNK A   0       4.184  11.056  90.685  1.00  0.00     0.198 C 
ENDROOT
BRANCH   2   7
HETATM    7  C   UNK A   0       4.962   8.217  88.346  1.00  0.00     0.311 C 
BRANCH   7   8
HETATM    8  C   UNK A   0       6.165   7.542  88.911  1.00  0.00    -0.030 A 
HETATM    9  C   UNK A   0       6.042   6.286  89.507  1.00  0.00     0.010 A 
HETATM   10  C   UNK A   0       7.167   5.653  90.038  1.00  0.00     0.021 A 
HETATM   11  C   UNK A   0       8.412   6.276  89.971  1.00  0.00     0.018 A 
HETATM   12  C   UNK A   0       8.536   7.530  89.376  1.00  0.00     0.021 A 
HETATM   13  C   UNK A   0       7.412   8.163  88.845  1.00  0.00     0.010 A 
BRANCH  11  14
HETATM   14  C   UNK A   0       9.566   5.626  90.513  1.00  0.00    -0.061 C 
HETATM   15  C   UNK A   0      10.536   5.081  90.969  1.00  0.00    -0.061 C 
BRANCH  15  16
HETATM   16  C   UNK A   0      11.688   4.432  91.512  1.00  0.00     0.018 A 
HETATM   17  C   UNK A   0      11.679   3.989  92.835  1.00  0.00     0.022 A 
HETATM   18  C   UNK A   0      12.803   3.354  93.364  1.00  0.00     0.018 A 
HETATM   19  C   UNK A   0      13.909   3.176  92.559  1.00  0.00     0.032 A 
HETATM   20  C   UNK A   0      13.942   3.605  91.249  1.00  0.00     0.018 A 
HETATM   21  C   UNK A   0      12.819   4.241  90.719  1.00  0.00     0.022 A 
BRANCH  19  22
HETATM   22  C   UNK A   0      15.106   2.501  93.123  1.00  0.00     0.252 C 
HETATM   23  O   UNK A   0      15.955   3.172  93.705  1.00  0.00    -0.268 OA
ENDBRANCH  19  22
ENDBRANCH  15  16
ENDBRANCH  11  14
ENDBRANCH   7   8
ENDBRANCH   2   7
TORSDOF 9
ENDMDL
MODEL 6
REMARK VINA RESULT:      -6.6      3.452     10.393
REMARK  9 active torsions:
REMARK  status: ('A' for Active; 'I' for Inactive)
REMARK    1  A    between atoms: N_3  and  C_6 
REMARK    2  A    between atoms: C_6  and  C_9 
REMARK    3  A    between atoms: C_14  and  C_17 
REMARK       I    between atoms: N_26  and  C_15 
REMARK    4  A    between atoms: C_15  and  C_16 
REMARK    5  A    between atoms: C_20  and  C_23 
REMARK    6  A    between atoms: OG1_24  and  CB_28 
REMARK    7  A    between atoms: N_26  and  CA_27 
REMARK    8  A    between atoms: CA_27  and  CB_28 
REMARK    9  A    between atoms: CA_27  and  C_30 
ROOT
HETATM    1  O   UNK A   0      16.184   3.149  93.626  1.00  0.00    -0.388 OA
HETATM    2  N   UNK A   0      13.472   2.871  92.808  1.00  0.00     0.096 N 
HETATM    3  C   UNK A   0      14.309   1.700  93.101  1.00  0.00     0.299 C 
HETATM    4  C   UNK A   0      14.309   3.982  92.333  1.00  0.00     0.299 C 
HETATM    5  C   UNK A   0      15.383   2.073  94.120  1.00  0.00     0.198 C 
HETATM    6  C   UNK A   0      15.382   4.302  93.368  1.00  0.00     0.198 C 
ENDROOT
BRANCH   2   7
HETATM    7  C   UNK A   0      12.442   2.539  91.825  1.00  0.00     0.311 C 
BRANCH   7   8
HETATM    8  C   UNK A   0      11.576   3.706  91.493  1.00  0.00    -0.030 A 
HETATM    9  C   UNK A   0      10.951   4.423  92.514  1.00  0.00     0.010 A 
HETATM   10  C   UNK A   0      10.139   5.514  92.204  1.00  0.00     0.021 A 
HETATM   11  C   UNK A   0       9.954   5.888  90.874  1.00  0.00     0.018 A 
HETATM   12  C   UNK A   0      10.578   5.173  89.853  1.00  0.00     0.021 A 
HETATM   13  C   UNK A   0      11.389   4.082  90.163  1.00  0.00     0.010 A 
BRANCH  11  14
HETATM   14  C   UNK A   0       9.123   7.009  90.556  1.00  0.00    -0.061 C 
HETATM   15  C   UNK A   0       8.425   7.950  90.289  1.00  0.00    -0.061 C 
BRANCH  15  16
HETATM   16  C   UNK A   0       7.594   9.070  89.971  1.00  0.00     0.018 A 
HETATM   17  C   UNK A   0       8.173  10.282  89.596  1.00  0.00     0.022 A 
HETATM   18  C   UNK A   0       7.362  11.373  89.283  1.00  0.00     0.018 A 
HETATM   19  C   UNK A   0       5.992  11.227  89.351  1.00  0.00     0.032 A 
HETATM   20  C   UNK A   0       5.396  10.039  89.719  1.00  0.00     0.018 A 
HETATM   21  C   UNK A   0       6.206   8.947  90.032  1.00  0.00     0.022 A 
BRANCH  19  22
HETATM   22  C   UNK A   0       5.129  12.390  89.019  1.00  0.00     0.252 C 
HETATM   23  O   UNK A   0       4.803  12.581  87.850  1.00  0.00    -0.268 OA
ENDBRANCH  19  22
ENDBRANCH  15  16
ENDBRANCH  11  14
ENDBRANCH   7   8
ENDBRANCH   2   7
TORSDOF 9
ENDMDL
MODEL 7
REMARK VINA RESULT:      -6.6      3.915     10.460
REMARK  9 active torsions:
REMARK  status: ('A' for Active; 'I' for Inactive)
REMARK    1  A    between atoms: N_3  and  C_6 
REMARK    2  A    between atoms: C_6  and  C_9 
REMARK    3  A    between atoms: C_14  and  C_17 
REMARK       I    between atoms: N_26  and  C_15 
REMARK    4  A    between atoms: C_15  and  C_16 
REMARK    5  A    between atoms: C_20  and  C_23 
REMARK    6  A    between atoms: OG1_24  and  CB_28 
REMARK    7  A    between atoms: N_26  and  CA_27 
REMARK    8  A    between atoms: CA_27  and  CB_28 
REMARK    9  A    between atoms: CA_27  and  C_30 
ROOT
HETATM    1  O   UNK A   0      14.646   3.350  92.117  1.00  0.00    -0.388 OA
HETATM    2  N   UNK A   0      11.919   4.151  92.271  1.00  0.00     0.096 N 
HETATM    3  C   UNK A   0      12.519   3.270  93.283  1.00  0.00     0.299 C 
HETATM    4  C   UNK A   0      12.595   3.967  90.980  1.00  0.00     0.299 C 
HETATM    5  C   UNK A   0      14.017   3.545  93.385  1.00  0.00     0.198 C 
HETATM    6  C   UNK A   0      14.090   4.225  91.136  1.00  0.00     0.198 C 
ENDROOT
BRANCH   2   7
HETATM    7  C   UNK A   0      10.485   3.896  92.149  1.00  0.00     0.311 C 
BRANCH   7   8
HETATM    8  C   UNK A   0       9.709   5.139  91.871  1.00  0.00    -0.030 A 
HETATM    9  C   UNK A   0       8.686   5.124  90.922  1.00  0.00     0.010 A 
HETATM   10  C   UNK A   0       7.962   6.286  90.659  1.00  0.00     0.021 A 
HETATM   11  C   UNK A   0       8.259   7.462  91.347  1.00  0.00     0.018 A 
HETATM   12  C   UNK A   0       9.280   7.479  92.295  1.00  0.00     0.021 A 
HETATM   13  C   UNK A   0      10.005   6.317  92.557  1.00  0.00     0.010 A 
BRANCH  11  14
HETATM   14  C   UNK A   0       7.514   8.654  91.079  1.00  0.00    -0.061 C 
HETATM   15  C   UNK A   0       6.887   9.655  90.854  1.00  0.00    -0.061 C 
BRANCH  15  16
HETATM   16  C   UNK A   0       6.143  10.847  90.587  1.00  0.00     0.018 A 
HETATM   17  C   UNK A   0       6.294  11.503  89.365  1.00  0.00     0.022 A 
HETATM   18  C   UNK A   0       5.566  12.663  89.104  1.00  0.00     0.018 A 
HETATM   19  C   UNK A   0       4.703  13.141  90.069  1.00  0.00     0.032 A 
HETATM   20  C   UNK A   0       4.537  12.511  91.284  1.00  0.00     0.018 A 
HETATM   21  C   UNK A   0       5.265  11.350  91.547  1.00  0.00     0.022 A 
BRANCH  19  22
HETATM   22  C   UNK A   0       3.929  14.378  89.791  1.00  0.00     0.252 C 
HETATM   23  O   UNK A   0       4.486  15.469  89.889  1.00  0.00    -0.268 OA
ENDBRANCH  19  22
ENDBRANCH  15  16
ENDBRANCH  11  14
ENDBRANCH   7   8
ENDBRANCH   2   7
TORSDOF 9
ENDMDL
MODEL 8
REMARK VINA RESULT:      -6.6      3.922     10.484
REMARK  9 active torsions:
REMARK  status: ('A' for Active; 'I' for Inactive)
REMARK    1  A    between atoms: N_3  and  C_6 
REMARK    2  A    between atoms: C_6  and  C_9 
REMARK    3  A    between atoms: C_14  and  C_17 
REMARK       I    between atoms: N_26  and  C_15 
REMARK    4  A    between atoms: C_15  and  C_16 
REMARK    5  A    between atoms: C_20  and  C_23 
REMARK    6  A    between atoms: OG1_24  and  CB_28 
REMARK    7  A    between atoms: N_26  and  CA_27 
REMARK    8  A    between atoms: CA_27  and  CB_28 
REMARK    9  A    between atoms: CA_27  and  C_30 
ROOT
HETATM    1  O   UNK A   0      14.611   3.383  92.121  1.00  0.00    -0.388 OA
HETATM    2  N   UNK A   0      11.887   4.191  92.286  1.00  0.00     0.096 N 
HETATM    3  C   UNK A   0      12.499   3.339  93.315  1.00  0.00     0.299 C 
HETATM    4  C   UNK A   0      12.546   3.968  90.991  1.00  0.00     0.299 C 
HETATM    5  C   UNK A   0      13.999   3.615  93.390  1.00  0.00     0.198 C 
HETATM    6  C   UNK A   0      14.043   4.229  91.121  1.00  0.00     0.198 C 
ENDROOT
BRANCH   2   7
HETATM    7  C   UNK A   0      10.451   3.935  92.189  1.00  0.00     0.311 C 
BRANCH   7   8
HETATM    8  C   UNK A   0       9.671   5.173  91.906  1.00  0.00    -0.030 A 
HETATM    9  C   UNK A   0       9.875   6.317  92.680  1.00  0.00     0.010 A 
HETATM   10  C   UNK A   0       9.145   7.476  92.417  1.00  0.00     0.021 A 
HETATM   11  C   UNK A   0       8.212   7.491  91.380  1.00  0.00     0.018 A 
HETATM   12  C   UNK A   0       8.008   6.350  90.607  1.00  0.00     0.021 A 
HETATM   13  C   UNK A   0       8.738   5.191  90.870  1.00  0.00     0.010 A 
BRANCH  11  14
HETATM   14  C   UNK A   0       7.465   8.680  91.110  1.00  0.00    -0.061 C 
HETATM   15  C   UNK A   0       6.837   9.680  90.883  1.00  0.00    -0.061 C 
BRANCH  15  16
HETATM   16  C   UNK A   0       6.090  10.869  90.612  1.00  0.00     0.018 A 
HETATM   17  C   UNK A   0       6.210  11.500  89.374  1.00  0.00     0.022 A 
HETATM   18  C   UNK A   0       5.480  12.658  89.109  1.00  0.00     0.018 A 
HETATM   19  C   UNK A   0       4.646  13.159  90.087  1.00  0.00     0.032 A 
HETATM   20  C   UNK A   0       4.511  12.554  91.319  1.00  0.00     0.018 A 
HETATM   21  C   UNK A   0       5.241  11.396  91.585  1.00  0.00     0.022 A 
BRANCH  19  22
HETATM   22  C   UNK A   0       3.870  14.394  89.805  1.00  0.00     0.252 C 
HETATM   23  O   UNK A   0       4.443  15.480  89.822  1.00  0.00    -0.268 OA
ENDBRANCH  19  22
ENDBRANCH  15  16
ENDBRANCH  11  14
ENDBRANCH   7   8
ENDBRANCH   2   7
TORSDOF 9
ENDMDL
MODEL 9
REMARK VINA RESULT:      -6.5      3.769     10.258
REMARK  9 active torsions:
REMARK  status: ('A' for Active; 'I' for Inactive)
REMARK    1  A    between atoms: N_3  and  C_6 
REMARK    2  A    between atoms: C_6  and  C_9 
REMARK    3  A    between atoms: C_14  and  C_17 
REMARK       I    between atoms: N_26  and  C_15 
REMARK    4  A    between atoms: C_15  and  C_16 
REMARK    5  A    between atoms: C_20  and  C_23 
REMARK    6  A    between atoms: OG1_24  and  CB_28 
REMARK    7  A    between atoms: N_26  and  CA_27 
REMARK    8  A    between atoms: CA_27  and  CB_28 
REMARK    9  A    between atoms: CA_27  and  C_30 
ROOT
HETATM    1  O   UNK A   0      14.195   2.940  92.797  1.00  0.00    -0.388 OA
HETATM    2  N   UNK A   0      11.972   4.021  91.385  1.00  0.00     0.096 N 
HETATM    3  C   UNK A   0      11.809   2.925  92.351  1.00  0.00     0.299 C 
HETATM    4  C   UNK A   0      13.312   3.967  90.785  1.00  0.00     0.299 C 
HETATM    5  C   UNK A   0      12.906   3.002  93.410  1.00  0.00     0.198 C 
HETATM    6  C   UNK A   0      14.373   4.019  91.879  1.00  0.00     0.198 C 
ENDROOT
BRANCH   2   7
HETATM    7  C   UNK A   0      10.937   3.960  90.355  1.00  0.00     0.311 C 
BRANCH   7   8
HETATM    8  C   UNK A   0      10.123   5.207  90.293  1.00  0.00    -0.030 A 
HETATM    9  C   UNK A   0      10.194   6.030  89.168  1.00  0.00     0.010 A 
HETATM   10  C   UNK A   0       9.434   7.199  89.110  1.00  0.00     0.021 A 
HETATM   11  C   UNK A   0       8.603   7.542  90.176  1.00  0.00     0.018 A 
HETATM   12  C   UNK A   0       8.531   6.721  91.299  1.00  0.00     0.021 A 
HETATM   13  C   UNK A   0       9.291   5.553  91.358  1.00  0.00     0.010 A 
BRANCH  11  14
HETATM   14  C   UNK A   0       7.822   8.739  90.116  1.00  0.00    -0.061 C 
HETATM   15  C   UNK A   0       7.166   9.746  90.064  1.00  0.00    -0.061 C 
BRANCH  15  16
HETATM   16  C   UNK A   0       6.385  10.942  90.003  1.00  0.00     0.018 A 
HETATM   17  C   UNK A   0       5.451  11.215  91.003  1.00  0.00     0.022 A 
HETATM   18  C   UNK A   0       4.691  12.383  90.944  1.00  0.00     0.018 A 
HETATM   19  C   UNK A   0       4.882  13.251  89.890  1.00  0.00     0.032 A 
HETATM   20  C   UNK A   0       5.799  13.004  88.890  1.00  0.00     0.018 A 
HETATM   21  C   UNK A   0       6.559  11.836  88.947  1.00  0.00     0.022 A 
BRANCH  19  22
HETATM   22  C   UNK A   0       4.071  14.495  89.827  1.00  0.00     0.252 C 
HETATM   23  O   UNK A   0       4.641  15.578  89.720  1.00  0.00    -0.268 OA
ENDBRANCH  19  22
ENDBRANCH  15  16
ENDBRANCH  11  14
ENDBRANCH   7   8
ENDBRANCH   2   7
TORSDOF 9
ENDMDL
