MODEL 1
REMARK VINA RESULT:      -6.4      0.000      0.000
REMARK  12 active torsions:
REMARK  status: ('A' for Active; 'I' for Inactive)
REMARK    1  A    between atoms: O_2  and  C_16 
REMARK    2  A    between atoms: N_5  and  C_9 
REMARK    3  A    between atoms: N_6  and  C_13 
REMARK       I    between atoms: N_6  and  C_22 
REMARK    4  A    between atoms: C_9  and  C_12 
REMARK    5  A    between atoms: C_13  and  C_16 
REMARK    6  A    between atoms: C_13  and  C_21 
REMARK    7  A    between atoms: C_19  and  C_24 
REMARK    8  A    between atoms: C_21  and  C_33 
REMARK    9  A    between atoms: C_22  and  C_23 
REMARK   10  A    between atoms: C_27  and  C_30 
REMARK   11  A    between atoms: C_33  and  C_34 
REMARK   12  A    between atoms: C_34  and  C_35 
ROOT
HETATM    1  O   UNL     1      15.982   4.303  93.993  1.00  0.00    -0.350 OA
HETATM    2  N   UNL     1      14.281   2.666  92.402  1.00  0.00     0.147 N 
HETATM    3  C   UNL     1      14.283   4.129  92.268  1.00  0.00     0.283 C 
HETATM    4  C   UNL     1      14.652   2.285  93.772  1.00  0.00     0.283 C 
HETATM    5  C   UNL     1      15.653   4.682  92.655  1.00  0.00     0.178 C 
HETATM    6  C   UNL     1      16.012   2.881  94.124  1.00  0.00     0.178 C 
ENDROOT
BRANCH   2   7
HETATM    7  C   UNL     1      12.974   2.116  92.046  1.00  0.00     0.277 C 
BRANCH   7   8
HETATM    8  C   UNL     1      11.904   3.154  92.038  1.00  0.00     0.011 A 
HETATM    9  C   UNL     1      11.116   3.333  90.900  1.00  0.00    -0.002 A 
HETATM   10  C   UNL     1      10.116   4.305  90.890  1.00  0.00     0.008 A 
HETATM   11  C   UNL     1       9.903   5.096  92.019  1.00  0.00     0.042 A 
HETATM   12  C   UNL     1      10.688   4.918  93.156  1.00  0.00     0.008 A 
HETATM   13  C   UNL     1      11.689   3.946  93.166  1.00  0.00    -0.002 A 
BRANCH  11  14
HETATM   14  C   UNL     1       8.876   6.092  92.009  1.00  0.00    -0.059 C 
HETATM   15  C   UNL     1       8.012   6.928  92.000  1.00  0.00    -0.059 C 
BRANCH  15  16
HETATM   16  C   UNL     1       6.985   7.923  91.991  1.00  0.00     0.042 A 
HETATM   17  C   UNL     1       5.682   7.575  91.632  1.00  0.00     0.008 A 
HETATM   18  C   UNL     1       4.680   8.545  91.625  1.00  0.00     0.005 A 
HETATM   19  C   UNL     1       5.002   9.839  91.979  1.00  0.00     0.056 A 
HETATM   20  C   UNL     1       6.281  10.208  92.337  1.00  0.00     0.005 A 
HETATM   21  C   UNL     1       7.285   9.239  92.344  1.00  0.00     0.008 A 
BRANCH  19  22
HETATM   22  C   UNL     1       3.934  10.872  91.970  1.00  0.00     0.254 C 
HETATM   23  O   UNL     1       2.802  10.568  92.338  1.00  0.00    -0.268 OA
HETATM   24  N   UNL     1       4.318  12.141  91.558  1.00  0.00    -0.335 N 
HETATM   25  HN  UNL     1       5.279  12.324  91.292  1.00  0.00     0.164 HD
BRANCH  24  26
HETATM   26  C   UNL     1       3.404  13.253  91.518  1.00  0.00     0.166 C 
BRANCH  26  27
HETATM   27  C   UNL     1       3.452  14.107  92.792  1.00  0.00     0.138 C 
HETATM   28  C   UNL     1       2.162  14.021  93.601  1.00  0.00     0.034 C 
BRANCH  27  29
HETATM   29  O   UNL     1       4.541  13.682  93.610  1.00  0.00    -0.383 OA
HETATM   30  H   UNL     1       4.178  13.239  94.395  1.00  0.00     0.210 HD
ENDBRANCH  27  29
ENDBRANCH  26  27
BRANCH  26  31
HETATM   31  C   UNL     1       3.734  14.084  90.282  1.00  0.00     0.181 C 
HETATM   32  O   UNL     1       3.798  15.311  90.297  1.00  0.00    -0.294 OA
BRANCH  31  33
HETATM   33  C   UNL     1       5.089  13.569  89.555  1.00  0.00     0.138 C 
BRANCH  33  34
HETATM   34  C   UNL     1       4.566  13.001  88.372  1.00  0.00     0.208 C 
HETATM   35  O   UNL     1       5.082  13.356  87.338  1.00  0.00    -0.289 OA
BRANCH  34  36
HETATM   36  C   UNL     1       3.768  11.905  88.191  1.00  0.00     0.194 C 
HETATM   37  O   UNL     1       4.030  10.692  87.545  1.00  0.00    -0.185 OA
ENDBRANCH  34  36
ENDBRANCH  33  34
ENDBRANCH  31  33
ENDBRANCH  26  31
ENDBRANCH  24  26
ENDBRANCH  19  22
ENDBRANCH  15  16
ENDBRANCH  11  14
ENDBRANCH   7   8
ENDBRANCH   2   7
TORSDOF 12
ENDMDL
