MODEL 1
REMARK VINA RESULT:      -7.1      0.000      0.000
REMARK  9 active torsions:
REMARK  status: ('A' for Active; 'I' for Inactive)
REMARK    1  A    between atoms: O_2  and  C_17 
REMARK    2  A    between atoms: N_5  and  C_10 
REMARK    3  A    between atoms: N_6  and  C_14 
REMARK       I    between atoms: N_6  and  C_23 
REMARK       I    between atoms: N_7  and  C_22 
REMARK    4  A    between atoms: C_10  and  C_13 
REMARK    5  A    between atoms: C_14  and  C_17 
REMARK    6  A    between atoms: C_14  and  C_22 
REMARK    7  A    between atoms: C_20  and  C_25 
REMARK    8  A    between atoms: C_23  and  C_24 
REMARK    9  A    between atoms: C_28  and  C_31 
ROOT
HETATM    1  O   UNL     1      16.133   3.960  94.117  1.00  0.00    -0.388 OA
HETATM    2  N   UNL     1      14.209   2.579  92.539  1.00  0.00     0.096 N 
HETATM    3  C   UNL     1      14.262   4.047  92.574  1.00  0.00     0.299 C 
HETATM    4  C   UNL     1      14.701   2.027  93.808  1.00  0.00     0.299 C 
HETATM    5  C   UNL     1      15.686   4.506  92.874  1.00  0.00     0.198 C 
HETATM    6  C   UNL     1      16.114   2.533  94.080  1.00  0.00     0.198 C 
ENDROOT
BRANCH   2   7
HETATM    7  C   UNL     1      12.850   2.116  92.263  1.00  0.00     0.311 C 
BRANCH   7   8
HETATM    8  C   UNL     1      11.927   3.237  91.923  1.00  0.00    -0.030 A 
HETATM    9  C   UNL     1      11.648   3.528  90.587  1.00  0.00     0.010 A 
HETATM   10  C   UNL     1      10.786   4.578  90.268  1.00  0.00     0.021 A 
HETATM   11  C   UNL     1      10.202   5.333  91.284  1.00  0.00     0.018 A 
HETATM   12  C   UNL     1      10.479   5.042  92.619  1.00  0.00     0.021 A 
HETATM   13  C   UNL     1      11.342   3.993  92.938  1.00  0.00     0.010 A 
BRANCH  11  14
HETATM   14  C   UNL     1       9.316   6.408  90.957  1.00  0.00    -0.061 C 
HETATM   15  C   UNL     1       8.572   7.311  90.682  1.00  0.00    -0.061 C 
BRANCH  15  16
HETATM   16  C   UNL     1       7.687   8.386  90.355  1.00  0.00     0.018 A 
HETATM   17  C   UNL     1       6.311   8.163  90.302  1.00  0.00     0.022 A 
HETATM   18  C   UNL     1       5.448   9.212  89.985  1.00  0.00     0.018 A 
HETATM   19  C   UNL     1       5.980  10.459  89.731  1.00  0.00     0.032 A 
HETATM   20  C   UNL     1       7.336  10.704  89.777  1.00  0.00     0.018 A 
HETATM   21  C   UNL     1       8.200   9.656  90.093  1.00  0.00     0.022 A 
BRANCH  19  22
HETATM   22  C   UNL     1       5.060  11.576  89.392  1.00  0.00     0.252 C 
HETATM   23  O   UNL     1       4.513  11.590  88.292  1.00  0.00    -0.268 OA
HETATM   24  N   UNL     1       4.869  12.528  90.383  1.00  0.00    -0.342 N 
HETATM   25  H   UNL     1       5.336  12.438  91.278  1.00  0.00     0.163 HD
BRANCH  24  26
HETATM   26  C   UNL     1       3.990  13.657  90.215  1.00  0.00     0.199 C 
BRANCH  26  27
HETATM   27  C   UNL     1       3.186  13.977  91.482  1.00  0.00     0.145 C 
HETATM   28  C   UNL     1       1.804  13.332  91.475  1.00  0.00     0.042 C 
BRANCH  27  29
HETATM   29  O   UNL     1       3.903  13.524  92.629  1.00  0.00    -0.393 OA
HETATM   30  H   UNL     1       3.326  13.618  93.406  1.00  0.00     0.210 HD
ENDBRANCH  27  29
ENDBRANCH  26  27
BRANCH  26  31
HETATM   31  C   UNL     1       4.838  14.848  89.781  1.00  0.00     0.220 C 
HETATM   32  O   UNL     1       5.144  15.061  88.609  1.00  0.00    -0.278 OA
HETATM   33  N   UNL     1       5.240  15.615  90.847  1.00  0.00    -0.271 NA
HETATM   34  H   UNL     1       5.082  15.420  91.829  1.00  0.00     0.127 HD
HETATM   35  H   UNL     1       6.525  15.730  91.402  1.00  0.00     0.127 HD
ENDBRANCH  26  31
ENDBRANCH  24  26
ENDBRANCH  19  22
ENDBRANCH  15  16
ENDBRANCH  11  14
ENDBRANCH   7   8
ENDBRANCH   2   7
TORSDOF 9
ENDMDL
