MODEL 1
REMARK VINA RESULT:      -5.8      0.000      0.000
REMARK  14 active torsions:
REMARK  status: ('A' for Active; 'I' for Inactive)
REMARK    1  A    between atoms: O_2  and  C_18 
REMARK    2  A    between atoms: C_5  and  C_8 
REMARK    3  A    between atoms: C_5  and  O_35 
REMARK    4  A    between atoms: C_5  and  C_36 
REMARK    5  A    between atoms: N_6  and  C_11 
REMARK    6  A    between atoms: N_7  and  C_15 
REMARK       I    between atoms: N_7  and  C_24 
REMARK    7  A    between atoms: C_8  and  C_23 
REMARK    8  A    between atoms: C_11  and  C_14 
REMARK    9  A    between atoms: C_15  and  C_18 
REMARK   10  A    between atoms: C_15  and  C_23 
REMARK   11  A    between atoms: C_21  and  C_26 
REMARK   12  A    between atoms: C_24  and  C_25 
REMARK   13  A    between atoms: C_29  and  C_32 
REMARK   14  A    between atoms: C_36  and  O_39 
ROOT
HETATM    1  O   UNL     1      17.445   4.606  93.597  1.00  0.00    -0.350 OA
HETATM    2  N   UNL     1      15.267   2.850  94.121  1.00  0.00     0.147 N 
HETATM    3  C   UNL     1      16.550   2.350  93.608  1.00  0.00     0.283 C 
HETATM    4  C   UNL     1      15.049   4.232  93.672  1.00  0.00     0.283 C 
HETATM    5  C   UNL     1      17.681   3.273  94.055  1.00  0.00     0.178 C 
HETATM    6  C   UNL     1      16.214   5.110  94.116  1.00  0.00     0.178 C 
ENDROOT
BRANCH   2   7
HETATM    7  C   UNL     1      14.168   1.985  93.695  1.00  0.00     0.277 C 
BRANCH   7   8
HETATM    8  C   UNL     1      13.098   2.738  92.979  1.00  0.00     0.011 A 
HETATM    9  C   UNL     1      13.031   2.697  91.586  1.00  0.00    -0.002 A 
HETATM   10  C   UNL     1      12.032   3.403  90.915  1.00  0.00     0.008 A 
HETATM   11  C   UNL     1      11.100   4.146  91.638  1.00  0.00     0.042 A 
HETATM   12  C   UNL     1      11.166   4.187  93.029  1.00  0.00     0.008 A 
HETATM   13  C   UNL     1      12.165   3.483  93.701  1.00  0.00    -0.002 A 
BRANCH  11  14
HETATM   14  C   UNL     1      10.074   4.868  90.950  1.00  0.00    -0.059 C 
HETATM   15  C   UNL     1       9.212   5.476  90.372  1.00  0.00    -0.059 C 
BRANCH  15  16
HETATM   16  C   UNL     1       8.188   6.197  89.684  1.00  0.00     0.042 A 
HETATM   17  C   UNL     1       8.490   6.885  88.508  1.00  0.00     0.008 A 
HETATM   18  C   UNL     1       7.489   7.587  87.836  1.00  0.00     0.005 A 
HETATM   19  C   UNL     1       6.211   7.585  88.352  1.00  0.00     0.056 A 
HETATM   20  C   UNL     1       5.887   6.913  89.513  1.00  0.00     0.005 A 
HETATM   21  C   UNL     1       6.886   6.211  90.186  1.00  0.00     0.008 A 
BRANCH  19  22
HETATM   22  C   UNL     1       5.146   8.334  87.636  1.00  0.00     0.254 C 
HETATM   23  O   UNL     1       5.060   8.234  86.415  1.00  0.00    -0.268 OA
HETATM   24  N   UNL     1       4.295   9.089  88.431  1.00  0.00    -0.335 N 
HETATM   25  HN  UNL     1       4.411   9.104  89.438  1.00  0.00     0.164 HD
BRANCH  24  26
HETATM   26  C   UNL     1       3.200   9.852  87.888  1.00  0.00     0.169 C 
BRANCH  26  27
HETATM   27  C   UNL     1       1.847   9.146  88.049  1.00  0.00     0.138 C 
HETATM   28  C   UNL     1       1.824   7.772  87.389  1.00  0.00     0.034 C 
BRANCH  27  29
HETATM   29  O   UNL     1       1.548   8.998  89.437  1.00  0.00    -0.383 OA
HETATM   30  H   UNL     1       1.084   9.798  89.735  1.00  0.00     0.210 HD
ENDBRANCH  27  29
ENDBRANCH  26  27
BRANCH  26  31
HETATM   31  C   UNL     1       3.198  11.216  88.570  1.00  0.00     0.194 C 
HETATM   32  O   UNL     1       2.426  11.507  89.483  1.00  0.00    -0.289 OA
BRANCH  31  33
HETATM   33  C   UNL     1       4.121  12.072  88.021  1.00  0.00     0.053 C 
BRANCH  33  34
HETATM   34  C   UNL     1       5.086  12.577  88.904  1.00  0.00     0.220 C 
BRANCH  34  35
HETATM   35  O   UNL     1       6.085  11.836  88.839  1.00  0.00    -0.371 OA
HETATM   36  H   UNL     1       6.423  12.142  88.011  1.00  0.00     0.211 HD
ENDBRANCH  34  35
BRANCH  34  37
HETATM   37  C   UNL     1       5.405  13.926  88.674  1.00  0.00     0.185 C 
HETATM   38  O   UNL     1       6.564  13.419  88.284  1.00  0.00    -0.647 OA
BRANCH  37  39
HETATM   39  O   UNL     1       4.876  14.986  88.821  1.00  0.00    -0.774 OA
HETATM   40  H   UNL     1       4.223  15.004  89.749  1.00  0.00     0.167 HD
ENDBRANCH  37  39
ENDBRANCH  34  37
ENDBRANCH  33  34
ENDBRANCH  31  33
ENDBRANCH  26  31
ENDBRANCH  24  26
ENDBRANCH  19  22
ENDBRANCH  15  16
ENDBRANCH  11  14
ENDBRANCH   7   8
ENDBRANCH   2   7
TORSDOF 14
ENDMDL
