MODEL 1
REMARK VINA RESULT:      -6.6      0.000      0.000
REMARK  10 active torsions:
REMARK  status: ('A' for Active; 'I' for Inactive)
REMARK    1  A    between atoms: O_2  and  C_16 
REMARK    2  A    between atoms: N_5  and  C_9 
REMARK    3  A    between atoms: N_6  and  C_13 
REMARK       I    between atoms: N_6  and  C_22 
REMARK    4  A    between atoms: C_9  and  C_12 
REMARK    5  A    between atoms: C_13  and  C_16 
REMARK    6  A    between atoms: C_13  and  C_21 
REMARK    7  A    between atoms: C_19  and  C_24 
REMARK    8  A    between atoms: C_22  and  C_23 
REMARK    9  A    between atoms: C_27  and  C_30 
REMARK   10  A    between atoms: N_33  and  S_34 
ROOT
HETATM    1  C   UNL     1       5.526  11.124  90.110  1.00  0.00     0.056 A 
HETATM    2  C   UNL     1       6.769  11.146  89.512  1.00  0.00     0.005 A 
HETATM    3  C   UNL     1       5.119  10.088  90.924  1.00  0.00     0.005 A 
HETATM    4  C   UNL     1       7.256   9.023  90.556  1.00  0.00     0.042 A 
HETATM    5  C   UNL     1       7.644  10.084  89.737  1.00  0.00     0.008 A 
HETATM    6  C   UNL     1       5.994   9.025  91.150  1.00  0.00     0.008 A 
ENDROOT
BRANCH   1   7
HETATM    7  C   UNL     1       4.595  12.257  89.871  1.00  0.00     0.254 C 
HETATM    8  O   UNL     1       4.359  12.607  88.717  1.00  0.00    -0.268 OA
HETATM    9  N   UNL     1       4.032  12.830  91.003  1.00  0.00    -0.337 N 
HETATM   10  HN  UNL     1       4.255  12.472  91.924  1.00  0.00     0.164 HD
BRANCH   9  11
HETATM   11  C   UNL     1       3.093  13.921  90.935  1.00  0.00     0.172 C 
BRANCH  11  12
HETATM   12  C   UNL     1       1.787  13.627  91.685  1.00  0.00     0.136 C 
HETATM   13  C   UNL     1       1.929  12.477  92.675  1.00  0.00     0.034 C 
BRANCH  12  14
HETATM   14  O   UNL     1       1.368  14.796  92.389  1.00  0.00    -0.383 OA
HETATM   15  H   UNL     1       0.629  15.197  91.901  1.00  0.00     0.210 HD
ENDBRANCH  12  14
ENDBRANCH  11  12
BRANCH  11  16
HETATM   16  C   UNL     1       3.782  15.164  91.487  1.00  0.00     0.398 A 
HETATM   17  O   UNL     1       4.832  15.608  91.027  1.00  0.00    -0.136 OA
HETATM   18  N   UNL     1       4.879  15.608  92.546  1.00  0.00     0.142 N 
HETATM   19  HN  UNL     1       5.759  16.007  92.376  1.00  0.00     0.338 HD
BRANCH  18  20
HETATM   20  S   UNL     1       4.318  15.027  93.678  1.00  0.00     0.076 SA
HETATM   21  H   UNL     1       3.490  14.194  93.493  1.00  0.00     0.136 HD
ENDBRANCH  18  20
ENDBRANCH  11  16
ENDBRANCH   9  11
ENDBRANCH   1   7
BRANCH   4  22
HETATM   22  C   UNL     1       8.152   7.933  90.785  1.00  0.00    -0.059 C 
HETATM   23  C   UNL     1       8.906   7.016  90.977  1.00  0.00    -0.059 C 
BRANCH  23  24
HETATM   24  C   UNL     1       9.803   5.925  91.207  1.00  0.00     0.042 A 
HETATM   25  C   UNL     1      10.035   5.477  92.507  1.00  0.00     0.008 A 
HETATM   26  C   UNL     1      10.911   4.415  92.731  1.00  0.00    -0.002 A 
HETATM   27  C   UNL     1      11.552   3.801  91.655  1.00  0.00     0.011 A 
HETATM   28  C   UNL     1      11.318   4.250  90.355  1.00  0.00    -0.002 A 
HETATM   29  C   UNL     1      10.443   5.313  90.132  1.00  0.00     0.008 A 
BRANCH  27  30
HETATM   30  C   UNL     1      12.486   2.664  91.896  1.00  0.00     0.277 C 
BRANCH  30  31
HETATM   31  N   UNL     1      13.548   3.006  92.840  1.00  0.00     0.147 N 
HETATM   32  C   UNL     1      14.374   1.829  93.143  1.00  0.00     0.283 C 
HETATM   33  C   UNL     1      15.482   2.213  94.121  1.00  0.00     0.178 C 
HETATM   34  O   UNL     1      16.286   3.260  93.575  1.00  0.00    -0.350 OA
HETATM   35  C   UNL     1      15.496   4.419  93.307  1.00  0.00     0.178 C 
HETATM   36  C   UNL     1      14.389   4.089  92.311  1.00  0.00     0.283 C 
ENDBRANCH  30  31
ENDBRANCH  27  30
ENDBRANCH  23  24
ENDBRANCH   4  22
TORSDOF 10
ENDMDL
