MODEL 1
REMARK VINA RESULT:      -7.1      0.000      0.000
REMARK  9 active torsions:
REMARK  status: ('A' for Active; 'I' for Inactive)
REMARK    1  A    between atoms: O_2  and  C_17 
REMARK    2  A    between atoms: N_5  and  C_10 
REMARK    3  A    between atoms: N_6  and  C_14 
REMARK       I    between atoms: N_6  and  C_23 
REMARK       I    between atoms: N_7  and  C_22 
REMARK    4  A    between atoms: C_10  and  C_13 
REMARK    5  A    between atoms: C_14  and  C_17 
REMARK    6  A    between atoms: C_14  and  C_22 
REMARK    7  A    between atoms: C_20  and  C_25 
REMARK    8  A    between atoms: C_23  and  C_24 
REMARK    9  A    between atoms: C_28  and  C_31 
ROOT
HETATM    1  O   UNL     1      16.015   4.096  94.120  1.00  0.00    -0.388 OA
HETATM    2  N   UNL     1      14.335   2.664  92.324  1.00  0.00     0.096 N 
HETATM    3  C   UNL     1      14.328   4.133  92.376  1.00  0.00     0.299 C 
HETATM    4  C   UNL     1      14.700   2.116  93.637  1.00  0.00     0.299 C 
HETATM    5  C   UNL     1      15.692   4.639  92.839  1.00  0.00     0.198 C 
HETATM    6  C   UNL     1      16.053   2.669  94.071  1.00  0.00     0.198 C 
ENDROOT
BRANCH   2   7
HETATM    7  C   UNL     1      13.034   2.156  91.892  1.00  0.00     0.311 C 
BRANCH   7   8
HETATM    8  C   UNL     1      12.074   3.251  91.571  1.00  0.00    -0.030 A 
HETATM    9  C   UNL     1      11.905   3.664  90.249  1.00  0.00     0.010 A 
HETATM   10  C   UNL     1      11.009   4.690  89.949  1.00  0.00     0.021 A 
HETATM   11  C   UNL     1      10.281   5.301  90.970  1.00  0.00     0.018 A 
HETATM   12  C   UNL     1      10.449   4.889  92.290  1.00  0.00     0.021 A 
HETATM   13  C   UNL     1      11.346   3.863  92.592  1.00  0.00     0.010 A 
BRANCH  11  14
HETATM   14  C   UNL     1       9.361   6.352  90.661  1.00  0.00    -0.061 C 
HETATM   15  C   UNL     1       8.587   7.234  90.401  1.00  0.00    -0.061 C 
BRANCH  15  16
HETATM   16  C   UNL     1       7.666   8.284  90.094  1.00  0.00     0.018 A 
HETATM   17  C   UNL     1       6.319   7.989  89.880  1.00  0.00     0.022 A 
HETATM   18  C   UNL     1       5.421   9.014  89.583  1.00  0.00     0.018 A 
HETATM   19  C   UNL     1       5.889  10.309  89.506  1.00  0.00     0.032 A 
HETATM   20  C   UNL     1       7.215  10.626  89.712  1.00  0.00     0.018 A 
HETATM   21  C   UNL     1       8.115   9.602  90.010  1.00  0.00     0.022 A 
BRANCH  19  22
HETATM   22  C   UNL     1       4.932  11.400  89.187  1.00  0.00     0.252 C 
HETATM   23  O   UNL     1       4.283  11.343  88.145  1.00  0.00    -0.268 OA
HETATM   24  N   UNL     1       4.829  12.413  90.130  1.00  0.00    -0.342 N 
HETATM   25  H   UNL     1       5.379  12.381  90.980  1.00  0.00     0.163 HD
BRANCH  24  26
HETATM   26  C   UNL     1       3.928  13.527  89.976  1.00  0.00     0.199 C 
BRANCH  26  27
HETATM   27  C   UNL     1       3.164  13.855  91.265  1.00  0.00     0.145 C 
HETATM   28  C   UNL     1       2.293  12.697  91.739  1.00  0.00     0.042 C 
BRANCH  27  29
HETATM   29  O   UNL     1       4.091  14.190  92.297  1.00  0.00    -0.393 OA
HETATM   30  H   UNL     1       4.897  13.663  92.165  1.00  0.00     0.210 HD
ENDBRANCH  27  29
ENDBRANCH  26  27
BRANCH  26  31
HETATM   31  C   UNL     1       4.743  14.723  89.494  1.00  0.00     0.220 C 
HETATM   32  O   UNL     1       5.114  15.625  90.243  1.00  0.00    -0.278 OA
HETATM   33  N   UNL     1       4.971  14.684  88.140  1.00  0.00    -0.271 NA
HETATM   34  H   UNL     1       4.605  14.005  87.482  1.00  0.00     0.127 HD
HETATM   35  H   UNL     1       4.407  15.489  87.138  1.00  0.00     0.127 HD
ENDBRANCH  26  31
ENDBRANCH  24  26
ENDBRANCH  19  22
ENDBRANCH  15  16
ENDBRANCH  11  14
ENDBRANCH   7   8
ENDBRANCH   2   7
TORSDOF 9
ENDMDL
