MODEL 1
REMARK VINA RESULT:      -6.8      0.000      0.000
REMARK  14 active torsions:
REMARK  status: ('A' for Active; 'I' for Inactive)
REMARK    1  A    between atoms: O_2  and  C_18 
REMARK    2  A    between atoms: C_5  and  C_8 
REMARK    3  A    between atoms: C_5  and  O_35 
REMARK    4  A    between atoms: C_5  and  C_36 
REMARK    5  A    between atoms: N_6  and  C_11 
REMARK    6  A    between atoms: N_7  and  C_15 
REMARK       I    between atoms: N_7  and  C_24 
REMARK    7  A    between atoms: C_8  and  C_23 
REMARK    8  A    between atoms: C_11  and  C_14 
REMARK    9  A    between atoms: C_15  and  C_18 
REMARK   10  A    between atoms: C_15  and  C_23 
REMARK   11  A    between atoms: C_21  and  C_26 
REMARK   12  A    between atoms: C_24  and  C_25 
REMARK   13  A    between atoms: C_29  and  C_32 
REMARK   14  A    between atoms: C_36  and  O_39 
ROOT
HETATM    1  O   UNL     1      16.047   4.177  94.120  1.00  0.00    -0.350 OA
HETATM    2  N   UNL     1      14.420   2.702  92.309  1.00  0.00     0.147 N 
HETATM    3  C   UNL     1      14.433   4.172  92.308  1.00  0.00     0.283 C 
HETATM    4  C   UNL     1      14.724   2.197  93.655  1.00  0.00     0.283 C 
HETATM    5  C   UNL     1      15.783   4.677  92.808  1.00  0.00     0.178 C 
HETATM    6  C   UNL     1      16.067   2.750  94.124  1.00  0.00     0.178 C 
ENDROOT
BRANCH   2   7
HETATM    7  C   UNL     1      13.131   2.195  91.843  1.00  0.00     0.277 C 
BRANCH   7   8
HETATM    8  C   UNL     1      12.080   3.253  91.816  1.00  0.00     0.011 A 
HETATM    9  C   UNL     1      11.586   3.774  93.013  1.00  0.00    -0.002 A 
HETATM   10  C   UNL     1      10.602   4.762  92.990  1.00  0.00     0.008 A 
HETATM   11  C   UNL     1      10.114   5.230  91.770  1.00  0.00     0.042 A 
HETATM   12  C   UNL     1      10.607   4.711  90.575  1.00  0.00     0.008 A 
HETATM   13  C   UNL     1      11.591   3.722  90.597  1.00  0.00    -0.002 A 
BRANCH  11  14
HETATM   14  C   UNL     1       9.106   6.245  91.746  1.00  0.00    -0.059 C 
HETATM   15  C   UNL     1       8.259   7.098  91.727  1.00  0.00    -0.059 C 
BRANCH  15  16
HETATM   16  C   UNL     1       7.252   8.113  91.704  1.00  0.00     0.042 A 
HETATM   17  C   UNL     1       6.343   8.167  90.647  1.00  0.00     0.008 A 
HETATM   18  C   UNL     1       5.359   9.156  90.626  1.00  0.00     0.005 A 
HETATM   19  C   UNL     1       5.306  10.066  91.661  1.00  0.00     0.056 A 
HETATM   20  C   UNL     1       6.194  10.034  92.716  1.00  0.00     0.005 A 
HETATM   21  C   UNL     1       7.178   9.046  92.738  1.00  0.00     0.008 A 
BRANCH  19  22
HETATM   22  C   UNL     1       4.259  11.120  91.637  1.00  0.00     0.254 C 
HETATM   23  O   UNL     1       3.076  10.790  91.651  1.00  0.00    -0.268 OA
HETATM   24  N   UNL     1       4.716  12.431  91.625  1.00  0.00    -0.335 N 
HETATM   25  HN  UNL     1       5.710  12.628  91.640  1.00  0.00     0.164 HD
BRANCH  24  26
HETATM   26  C   UNL     1       3.825  13.563  91.626  1.00  0.00     0.169 C 
BRANCH  26  27
HETATM   27  C   UNL     1       3.614  14.152  93.026  1.00  0.00     0.138 C 
HETATM   28  C   UNL     1       2.221  13.865  93.577  1.00  0.00     0.034 C 
BRANCH  27  29
HETATM   29  O   UNL     1       4.586  13.613  93.922  1.00  0.00    -0.383 OA
HETATM   30  H   UNL     1       4.783  14.284  94.597  1.00  0.00     0.210 HD
ENDBRANCH  27  29
ENDBRANCH  26  27
BRANCH  26  31
HETATM   31  C   UNL     1       4.393  14.604  90.667  1.00  0.00     0.194 C 
HETATM   32  O   UNL     1       5.171  15.487  91.021  1.00  0.00    -0.289 OA
BRANCH  31  33
HETATM   33  C   UNL     1       3.904  14.456  89.391  1.00  0.00     0.053 C 
BRANCH  33  34
HETATM   34  C   UNL     1       4.812  13.967  88.442  1.00  0.00     0.220 C 
BRANCH  34  35
HETATM   35  O   UNL     1       5.962  14.197  88.863  1.00  0.00    -0.371 OA
HETATM   36  H   UNL     1       6.388  13.430  88.511  1.00  0.00     0.211 HD
ENDBRANCH  34  35
BRANCH  34  37
HETATM   37  C   UNL     1       4.620  12.610  88.130  1.00  0.00     0.185 C 
HETATM   38  O   UNL     1       5.793  12.471  88.728  1.00  0.00    -0.647 OA
BRANCH  37  39
HETATM   39  O   UNL     1       3.804  11.952  87.557  1.00  0.00    -0.774 OA
HETATM   40  H   UNL     1       3.051  12.602  87.012  1.00  0.00     0.167 HD
ENDBRANCH  37  39
ENDBRANCH  34  37
ENDBRANCH  33  34
ENDBRANCH  31  33
ENDBRANCH  26  31
ENDBRANCH  24  26
ENDBRANCH  19  22
ENDBRANCH  15  16
ENDBRANCH  11  14
ENDBRANCH   7   8
ENDBRANCH   2   7
TORSDOF 14
ENDMDL
