MODEL 1
REMARK VINA RESULT:      -6.1      0.000      0.000
REMARK  12 active torsions:
REMARK  status: ('A' for Active; 'I' for Inactive)
REMARK    1  A    between atoms: O_2  and  C_16 
REMARK    2  A    between atoms: N_5  and  C_9 
REMARK    3  A    between atoms: N_6  and  C_13 
REMARK       I    between atoms: N_6  and  C_22 
REMARK    4  A    between atoms: C_9  and  C_12 
REMARK    5  A    between atoms: C_13  and  C_16 
REMARK    6  A    between atoms: C_13  and  C_21 
REMARK    7  A    between atoms: C_19  and  C_24 
REMARK    8  A    between atoms: C_21  and  C_33 
REMARK    9  A    between atoms: C_22  and  C_23 
REMARK   10  A    between atoms: C_27  and  C_30 
REMARK   11  A    between atoms: C_33  and  C_34 
REMARK   12  A    between atoms: C_34  and  C_35 
ROOT
HETATM    1  O   UNL     1      16.712   3.458  93.924  1.00  0.00    -0.350 OA
HETATM    2  N   UNL     1      14.183   3.010  92.697  1.00  0.00     0.147 N 
HETATM    3  C   UNL     1      15.135   1.912  92.917  1.00  0.00     0.283 C 
HETATM    4  C   UNL     1      14.907   4.277  92.526  1.00  0.00     0.283 C 
HETATM    5  C   UNL     1      16.016   2.227  94.124  1.00  0.00     0.178 C 
HETATM    6  C   UNL     1      15.793   4.536  93.740  1.00  0.00     0.178 C 
ENDROOT
BRANCH   2   7
HETATM    7  C   UNL     1      13.335   2.735  91.539  1.00  0.00     0.277 C 
BRANCH   7   8
HETATM    8  C   UNL     1      12.149   3.637  91.476  1.00  0.00     0.011 A 
HETATM    9  C   UNL     1      11.879   4.352  90.309  1.00  0.00    -0.002 A 
HETATM   10  C   UNL     1      10.771   5.198  90.249  1.00  0.00     0.008 A 
HETATM   11  C   UNL     1       9.933   5.325  91.356  1.00  0.00     0.042 A 
HETATM   12  C   UNL     1      10.201   4.611  92.522  1.00  0.00     0.008 A 
HETATM   13  C   UNL     1      11.309   3.766  92.582  1.00  0.00    -0.002 A 
BRANCH  11  14
HETATM   14  C   UNL     1       8.796   6.191  91.295  1.00  0.00    -0.059 C 
HETATM   15  C   UNL     1       7.839   6.918  91.244  1.00  0.00    -0.059 C 
BRANCH  15  16
HETATM   16  C   UNL     1       6.703   7.783  91.183  1.00  0.00     0.042 A 
HETATM   17  C   UNL     1       5.635   7.472  90.341  1.00  0.00     0.008 A 
HETATM   18  C   UNL     1       4.525   8.315  90.284  1.00  0.00     0.005 A 
HETATM   19  C   UNL     1       4.508   9.449  91.069  1.00  0.00     0.056 A 
HETATM   20  C   UNL     1       5.551   9.779  91.909  1.00  0.00     0.005 A 
HETATM   21  C   UNL     1       6.662   8.936  91.967  1.00  0.00     0.008 A 
BRANCH  19  22
HETATM   22  C   UNL     1       3.326  10.348  91.006  1.00  0.00     0.254 C 
HETATM   23  O   UNL     1       2.275   9.923  90.534  1.00  0.00    -0.268 OA
HETATM   24  N   UNL     1       3.504  11.623  91.524  1.00  0.00    -0.335 N 
HETATM   25  HN  UNL     1       4.396  11.895  91.922  1.00  0.00     0.164 HD
BRANCH  24  26
HETATM   26  C   UNL     1       2.447  12.601  91.558  1.00  0.00     0.166 C 
BRANCH  26  27
HETATM   27  C   UNL     1       2.267  13.235  92.943  1.00  0.00     0.138 C 
HETATM   28  C   UNL     1       3.596  13.609  93.590  1.00  0.00     0.034 C 
BRANCH  27  29
HETATM   29  O   UNL     1       1.460  14.406  92.831  1.00  0.00    -0.383 OA
HETATM   30  H   UNL     1       1.867  14.996  92.175  1.00  0.00     0.210 HD
ENDBRANCH  27  29
ENDBRANCH  26  27
BRANCH  26  31
HETATM   31  C   UNL     1       2.755  13.657  90.501  1.00  0.00     0.181 C 
HETATM   32  O   UNL     1       1.947  14.518  90.159  1.00  0.00    -0.294 OA
BRANCH  31  33
HETATM   33  C   UNL     1       4.141  14.436  90.815  1.00  0.00     0.138 C 
BRANCH  33  34
HETATM   34  C   UNL     1       4.715  14.503  89.526  1.00  0.00     0.208 C 
HETATM   35  O   UNL     1       5.460  15.434  89.322  1.00  0.00    -0.289 OA
BRANCH  34  36
HETATM   36  C   UNL     1       4.812  13.552  88.547  1.00  0.00     0.194 C 
HETATM   37  O   UNL     1       5.125  12.191  88.636  1.00  0.00    -0.185 OA
ENDBRANCH  34  36
ENDBRANCH  33  34
ENDBRANCH  31  33
ENDBRANCH  26  31
ENDBRANCH  24  26
ENDBRANCH  19  22
ENDBRANCH  15  16
ENDBRANCH  11  14
ENDBRANCH   7   8
ENDBRANCH   2   7
TORSDOF 12
ENDMDL
MODEL 2
REMARK VINA RESULT:      -5.8      1.080      1.415
REMARK  12 active torsions:
REMARK  status: ('A' for Active; 'I' for Inactive)
REMARK    1  A    between atoms: O_2  and  C_16 
REMARK    2  A    between atoms: N_5  and  C_9 
REMARK    3  A    between atoms: N_6  and  C_13 
REMARK       I    between atoms: N_6  and  C_22 
REMARK    4  A    between atoms: C_9  and  C_12 
REMARK    5  A    between atoms: C_13  and  C_16 
REMARK    6  A    between atoms: C_13  and  C_21 
REMARK    7  A    between atoms: C_19  and  C_24 
REMARK    8  A    between atoms: C_21  and  C_33 
REMARK    9  A    between atoms: C_22  and  C_23 
REMARK   10  A    between atoms: C_27  and  C_30 
REMARK   11  A    between atoms: C_33  and  C_34 
REMARK   12  A    between atoms: C_34  and  C_35 
ROOT
HETATM    1  O   UNL     1      16.675   3.287  93.516  1.00  0.00    -0.350 OA
HETATM    2  N   UNL     1      13.917   2.836  92.977  1.00  0.00     0.147 N 
HETATM    3  C   UNL     1      14.842   1.723  93.229  1.00  0.00     0.283 C 
HETATM    4  C   UNL     1      14.642   3.968  92.383  1.00  0.00     0.283 C 
HETATM    5  C   UNL     1      15.986   2.193  94.124  1.00  0.00     0.178 C 
HETATM    6  C   UNL     1      15.790   4.385  93.296  1.00  0.00     0.178 C 
ENDROOT
BRANCH   2   7
HETATM    7  C   UNL     1      12.818   2.411  92.112  1.00  0.00     0.277 C 
BRANCH   7   8
HETATM    8  C   UNL     1      11.688   3.383  92.109  1.00  0.00     0.011 A 
HETATM    9  C   UNL     1      10.882   3.510  90.977  1.00  0.00    -0.002 A 
HETATM   10  C   UNL     1       9.826   4.422  90.972  1.00  0.00     0.008 A 
HETATM   11  C   UNL     1       9.576   5.204  92.099  1.00  0.00     0.042 A 
HETATM   12  C   UNL     1      10.381   5.078  93.230  1.00  0.00     0.008 A 
HETATM   13  C   UNL     1      11.437   4.167  93.235  1.00  0.00    -0.002 A 
BRANCH  11  14
HETATM   14  C   UNL     1       8.492   6.137  92.094  1.00  0.00    -0.059 C 
HETATM   15  C   UNL     1       7.581   6.922  92.090  1.00  0.00    -0.059 C 
BRANCH  15  16
HETATM   16  C   UNL     1       6.497   7.854  92.084  1.00  0.00     0.042 A 
HETATM   17  C   UNL     1       6.753   9.221  92.200  1.00  0.00     0.008 A 
HETATM   18  C   UNL     1       5.696  10.130  92.192  1.00  0.00     0.005 A 
HETATM   19  C   UNL     1       4.407   9.654  92.068  1.00  0.00     0.056 A 
HETATM   20  C   UNL     1       4.128   8.308  91.952  1.00  0.00     0.005 A 
HETATM   21  C   UNL     1       5.185   7.398  91.960  1.00  0.00     0.008 A 
BRANCH  19  22
HETATM   22  C   UNL     1       3.281  10.623  92.061  1.00  0.00     0.254 C 
HETATM   23  O   UNL     1       2.223  10.317  92.604  1.00  0.00    -0.268 OA
HETATM   24  N   UNL     1       3.531  11.841  91.445  1.00  0.00    -0.335 N 
HETATM   25  HN  UNL     1       4.439  12.034  91.039  1.00  0.00     0.164 HD
BRANCH  24  26
HETATM   26  C   UNL     1       2.548  12.893  91.378  1.00  0.00     0.166 C 
BRANCH  26  27
HETATM   27  C   UNL     1       2.611  13.841  92.582  1.00  0.00     0.138 C 
HETATM   28  C   UNL     1       3.961  14.539  92.706  1.00  0.00     0.034 C 
BRANCH  27  29
HETATM   29  O   UNL     1       1.588  14.829  92.465  1.00  0.00    -0.383 OA
HETATM   30  H   UNL     1       1.058  14.817  93.280  1.00  0.00     0.210 HD
ENDBRANCH  27  29
ENDBRANCH  26  27
BRANCH  26  31
HETATM   31  C   UNL     1       2.759  13.645  90.068  1.00  0.00     0.181 C 
HETATM   32  O   UNL     1       2.315  14.773  89.865  1.00  0.00    -0.294 OA
BRANCH  31  33
HETATM   33  C   UNL     1       4.323  13.692  89.646  1.00  0.00     0.138 C 
BRANCH  33  34
HETATM   34  C   UNL     1       4.289  13.032  88.397  1.00  0.00     0.208 C 
HETATM   35  O   UNL     1       4.891  13.569  87.495  1.00  0.00    -0.289 OA
BRANCH  34  36
HETATM   36  C   UNL     1       3.938  11.749  88.081  1.00  0.00     0.194 C 
HETATM   37  O   UNL     1       2.709  11.091  88.204  1.00  0.00    -0.185 OA
ENDBRANCH  34  36
ENDBRANCH  33  34
ENDBRANCH  31  33
ENDBRANCH  26  31
ENDBRANCH  24  26
ENDBRANCH  19  22
ENDBRANCH  15  16
ENDBRANCH  11  14
ENDBRANCH   7   8
ENDBRANCH   2   7
TORSDOF 12
ENDMDL
MODEL 3
REMARK VINA RESULT:      -4.9      2.726     12.544
REMARK  12 active torsions:
REMARK  status: ('A' for Active; 'I' for Inactive)
REMARK    1  A    between atoms: O_2  and  C_16 
REMARK    2  A    between atoms: N_5  and  C_9 
REMARK    3  A    between atoms: N_6  and  C_13 
REMARK       I    between atoms: N_6  and  C_22 
REMARK    4  A    between atoms: C_9  and  C_12 
REMARK    5  A    between atoms: C_13  and  C_16 
REMARK    6  A    between atoms: C_13  and  C_21 
REMARK    7  A    between atoms: C_19  and  C_24 
REMARK    8  A    between atoms: C_21  and  C_33 
REMARK    9  A    between atoms: C_22  and  C_23 
REMARK   10  A    between atoms: C_27  and  C_30 
REMARK   11  A    between atoms: C_33  and  C_34 
REMARK   12  A    between atoms: C_34  and  C_35 
ROOT
HETATM    1  O   UNL     1       3.236  14.774  93.895  1.00  0.00    -0.350 OA
HETATM    2  N   UNL     1       2.879  14.701  91.072  1.00  0.00     0.147 N 
HETATM    3  C   UNL     1       1.907  14.085  91.985  1.00  0.00     0.283 C 
HETATM    4  C   UNL     1       4.218  14.687  91.678  1.00  0.00     0.283 C 
HETATM    5  C   UNL     1       1.925  14.812  93.327  1.00  0.00     0.178 C 
HETATM    6  C   UNL     1       4.182  15.399  93.027  1.00  0.00     0.178 C 
ENDROOT
BRANCH   2   7
HETATM    7  C   UNL     1       2.886  14.013  89.782  1.00  0.00     0.277 C 
BRANCH   7   8
HETATM    8  C   UNL     1       3.838  12.866  89.755  1.00  0.00     0.011 A 
HETATM    9  C   UNL     1       3.434  11.614  90.219  1.00  0.00    -0.002 A 
HETATM   10  C   UNL     1       4.324  10.541  90.196  1.00  0.00     0.008 A 
HETATM   11  C   UNL     1       5.618  10.720  89.707  1.00  0.00     0.042 A 
HETATM   12  C   UNL     1       6.023  11.970  89.243  1.00  0.00     0.008 A 
HETATM   13  C   UNL     1       5.133  13.044  89.267  1.00  0.00    -0.002 A 
BRANCH  11  14
HETATM   14  C   UNL     1       6.531   9.619  89.682  1.00  0.00    -0.059 C 
HETATM   15  C   UNL     1       7.298   8.693  89.659  1.00  0.00    -0.059 C 
BRANCH  15  16
HETATM   16  C   UNL     1       8.210   7.593  89.633  1.00  0.00     0.042 A 
HETATM   17  C   UNL     1       9.470   7.746  89.052  1.00  0.00     0.008 A 
HETATM   18  C   UNL     1      10.361   6.674  89.030  1.00  0.00     0.005 A 
HETATM   19  C   UNL     1       9.974   5.473  89.588  1.00  0.00     0.056 A 
HETATM   20  C   UNL     1       8.735   5.296  90.168  1.00  0.00     0.005 A 
HETATM   21  C   UNL     1       7.843   6.368  90.191  1.00  0.00     0.008 A 
BRANCH  19  22
HETATM   22  C   UNL     1      10.923   4.330  89.562  1.00  0.00     0.254 C 
HETATM   23  O   UNL     1      10.893   3.547  88.615  1.00  0.00    -0.268 OA
HETATM   24  N   UNL     1      11.809   4.251  90.627  1.00  0.00    -0.335 N 
HETATM   25  HN  UNL     1      11.793   4.950  91.361  1.00  0.00     0.164 HD
BRANCH  24  26
HETATM   26  C   UNL     1      12.805   3.215  90.732  1.00  0.00     0.166 C 
BRANCH  26  27
HETATM   27  C   UNL     1      14.232   3.771  90.833  1.00  0.00     0.138 C 
HETATM   28  C   UNL     1      15.229   2.977  89.997  1.00  0.00     0.034 C 
BRANCH  27  29
HETATM   29  O   UNL     1      14.245   5.132  90.403  1.00  0.00    -0.383 OA
HETATM   30  H   UNL     1      14.047   5.696  91.169  1.00  0.00     0.210 HD
ENDBRANCH  27  29
ENDBRANCH  26  27
BRANCH  26  31
HETATM   31  C   UNL     1      12.458   2.356  91.942  1.00  0.00     0.181 C 
HETATM   32  O   UNL     1      12.196   1.157  91.860  1.00  0.00    -0.294 OA
BRANCH  31  33
HETATM   33  C   UNL     1      13.564   2.497  93.119  1.00  0.00     0.138 C 
BRANCH  33  34
HETATM   34  C   UNL     1      13.060   3.605  93.836  1.00  0.00     0.208 C 
HETATM   35  O   UNL     1      13.836   4.512  94.029  1.00  0.00    -0.289 OA
BRANCH  34  36
HETATM   36  C   UNL     1      11.771   3.972  94.112  1.00  0.00     0.194 C 
HETATM   37  O   UNL     1      11.055   5.113  93.734  1.00  0.00    -0.185 OA
ENDBRANCH  34  36
ENDBRANCH  33  34
ENDBRANCH  31  33
ENDBRANCH  26  31
ENDBRANCH  24  26
ENDBRANCH  19  22
ENDBRANCH  15  16
ENDBRANCH  11  14
ENDBRANCH   7   8
ENDBRANCH   2   7
TORSDOF 12
ENDMDL
