MODEL 1
REMARK VINA RESULT:      -7.4      0.000      0.000
REMARK  9 active torsions:
REMARK  status: ('A' for Active; 'I' for Inactive)
REMARK    1  A    between atoms: O_2  and  C_17 
REMARK    2  A    between atoms: N_5  and  C_10 
REMARK    3  A    between atoms: N_6  and  C_14 
REMARK       I    between atoms: N_6  and  C_23 
REMARK       I    between atoms: N_7  and  C_22 
REMARK    4  A    between atoms: C_10  and  C_13 
REMARK    5  A    between atoms: C_14  and  C_17 
REMARK    6  A    between atoms: C_14  and  C_22 
REMARK    7  A    between atoms: C_20  and  C_25 
REMARK    8  A    between atoms: C_23  and  C_24 
REMARK    9  A    between atoms: C_28  and  C_31 
ROOT
HETATM    1  O   UNL     1      16.154   3.955  94.111  1.00  0.00    -0.388 OA
HETATM    2  N   UNL     1      14.210   2.613  92.523  1.00  0.00     0.096 N 
HETATM    3  C   UNL     1      14.310   4.079  92.537  1.00  0.00     0.299 C 
HETATM    4  C   UNL     1      14.664   2.065  93.809  1.00  0.00     0.299 C 
HETATM    5  C   UNL     1      15.745   4.495  92.853  1.00  0.00     0.198 C 
HETATM    6  C   UNL     1      16.088   2.528  94.096  1.00  0.00     0.198 C 
ENDROOT
BRANCH   2   7
HETATM    7  C   UNL     1      12.840   2.191  92.233  1.00  0.00     0.311 C 
BRANCH   7   8
HETATM    8  C   UNL     1      11.946   3.341  91.918  1.00  0.00    -0.030 A 
HETATM    9  C   UNL     1      11.734   3.716  90.591  1.00  0.00     0.010 A 
HETATM   10  C   UNL     1      10.899   4.793  90.295  1.00  0.00     0.021 A 
HETATM   11  C   UNL     1      10.276   5.494  91.327  1.00  0.00     0.018 A 
HETATM   12  C   UNL     1      10.487   5.121  92.653  1.00  0.00     0.021 A 
HETATM   13  C   UNL     1      11.322   4.044  92.949  1.00  0.00     0.010 A 
BRANCH  11  14
HETATM   14  C   UNL     1       9.418   6.599  91.024  1.00  0.00    -0.061 C 
HETATM   15  C   UNL     1       8.698   7.527  90.769  1.00  0.00    -0.061 C 
BRANCH  15  16
HETATM   16  C   UNL     1       7.841   8.631  90.465  1.00  0.00     0.018 A 
HETATM   17  C   UNL     1       8.331   9.712  89.733  1.00  0.00     0.022 A 
HETATM   18  C   UNL     1       7.495  10.787  89.434  1.00  0.00     0.018 A 
HETATM   19  C   UNL     1       6.188  10.757  89.874  1.00  0.00     0.032 A 
HETATM   20  C   UNL     1       5.679   9.700  90.600  1.00  0.00     0.018 A 
HETATM   21  C   UNL     1       6.515   8.624  90.899  1.00  0.00     0.022 A 
BRANCH  19  22
HETATM   22  C   UNL     1       5.297  11.904  89.557  1.00  0.00     0.252 C 
HETATM   23  O   UNL     1       5.064  12.175  88.382  1.00  0.00    -0.268 OA
HETATM   24  N   UNL     1       4.767  12.581  90.647  1.00  0.00    -0.342 N 
HETATM   25  H   UNL     1       4.985  12.284  91.590  1.00  0.00     0.163 HD
BRANCH  24  26
HETATM   26  C   UNL     1       3.868  13.698  90.503  1.00  0.00     0.199 C 
BRANCH  26  27
HETATM   27  C   UNL     1       2.838  13.781  91.637  1.00  0.00     0.145 C 
HETATM   28  C   UNL     1       1.995  12.516  91.753  1.00  0.00     0.042 C 
BRANCH  27  29
HETATM   29  O   UNL     1       3.510  14.005  92.876  1.00  0.00    -0.393 OA
HETATM   30  H   UNL     1       4.447  14.179  92.688  1.00  0.00     0.210 HD
ENDBRANCH  27  29
ENDBRANCH  26  27
BRANCH  26  31
HETATM   31  C   UNL     1       4.711  14.967  90.426  1.00  0.00     0.220 C 
HETATM   32  O   UNL     1       5.023  15.624  91.417  1.00  0.00    -0.278 OA
HETATM   33  N   UNL     1       5.037  15.295  89.132  1.00  0.00    -0.271 NA
HETATM   34  H   UNL     1       4.723  14.828  88.290  1.00  0.00     0.127 HD
HETATM   35  H   UNL     1       4.543  16.352  88.351  1.00  0.00     0.127 HD
ENDBRANCH  26  31
ENDBRANCH  24  26
ENDBRANCH  19  22
ENDBRANCH  15  16
ENDBRANCH  11  14
ENDBRANCH   7   8
ENDBRANCH   2   7
TORSDOF 9
ENDMDL
MODEL 2
REMARK VINA RESULT:      -6.7      1.695      2.654
REMARK  9 active torsions:
REMARK  status: ('A' for Active; 'I' for Inactive)
REMARK    1  A    between atoms: O_2  and  C_17 
REMARK    2  A    between atoms: N_5  and  C_10 
REMARK    3  A    between atoms: N_6  and  C_14 
REMARK       I    between atoms: N_6  and  C_23 
REMARK       I    between atoms: N_7  and  C_22 
REMARK    4  A    between atoms: C_10  and  C_13 
REMARK    5  A    between atoms: C_14  and  C_17 
REMARK    6  A    between atoms: C_14  and  C_22 
REMARK    7  A    between atoms: C_20  and  C_25 
REMARK    8  A    between atoms: C_23  and  C_24 
REMARK    9  A    between atoms: C_28  and  C_31 
ROOT
HETATM    1  O   UNL     1      16.218   3.900  94.124  1.00  0.00    -0.388 OA
HETATM    2  N   UNL     1      14.289   2.664  92.434  1.00  0.00     0.096 N 
HETATM    3  C   UNL     1      14.437   4.125  92.491  1.00  0.00     0.299 C 
HETATM    4  C   UNL     1      14.679   2.068  93.719  1.00  0.00     0.299 C 
HETATM    5  C   UNL     1      15.871   4.486  92.868  1.00  0.00     0.198 C 
HETATM    6  C   UNL     1      16.107   2.477  94.067  1.00  0.00     0.198 C 
ENDROOT
BRANCH   2   7
HETATM    7  C   UNL     1      12.918   2.296  92.085  1.00  0.00     0.311 C 
BRANCH   7   8
HETATM    8  C   UNL     1      11.981   3.452  92.168  1.00  0.00    -0.030 A 
HETATM    9  C   UNL     1      11.627   3.974  93.413  1.00  0.00     0.010 A 
HETATM   10  C   UNL     1      10.748   5.054  93.492  1.00  0.00     0.021 A 
HETATM   11  C   UNL     1      10.225   5.613  92.326  1.00  0.00     0.018 A 
HETATM   12  C   UNL     1      10.578   5.093  91.082  1.00  0.00     0.021 A 
HETATM   13  C   UNL     1      11.456   4.012  91.003  1.00  0.00     0.010 A 
BRANCH  11  14
HETATM   14  C   UNL     1       9.325   6.722  92.407  1.00  0.00    -0.061 C 
HETATM   15  C   UNL     1       8.569   7.655  92.474  1.00  0.00    -0.061 C 
BRANCH  15  16
HETATM   16  C   UNL     1       7.670   8.763  92.555  1.00  0.00     0.018 A 
HETATM   17  C   UNL     1       7.670   9.580  93.686  1.00  0.00     0.022 A 
HETATM   18  C   UNL     1       6.794  10.662  93.763  1.00  0.00     0.018 A 
HETATM   19  C   UNL     1       5.939  10.904  92.708  1.00  0.00     0.032 A 
HETATM   20  C   UNL     1       5.919  10.112  91.580  1.00  0.00     0.018 A 
HETATM   21  C   UNL     1       6.794   9.029  91.502  1.00  0.00     0.022 A 
BRANCH  19  22
HETATM   22  C   UNL     1       5.005  12.057  92.792  1.00  0.00     0.252 C 
HETATM   23  O   UNL     1       4.656  12.467  93.896  1.00  0.00    -0.268 OA
HETATM   24  N   UNL     1       4.609  12.608  91.581  1.00  0.00    -0.342 N 
HETATM   25  H   UNL     1       4.959  12.231  90.707  1.00  0.00     0.163 HD
BRANCH  24  26
HETATM   26  C   UNL     1       3.727  13.744  91.497  1.00  0.00     0.199 C 
BRANCH  26  27
HETATM   27  C   UNL     1       3.619  14.308  90.075  1.00  0.00     0.145 C 
HETATM   28  C   UNL     1       4.977  14.674  89.487  1.00  0.00     0.042 C 
BRANCH  27  29
HETATM   29  O   UNL     1       2.991  13.347  89.226  1.00  0.00    -0.393 OA
HETATM   30  H   UNL     1       2.038  13.537  89.204  1.00  0.00     0.210 HD
ENDBRANCH  27  29
ENDBRANCH  26  27
BRANCH  26  31
HETATM   31  C   UNL     1       2.363  13.314  92.028  1.00  0.00     0.220 C 
HETATM   32  O   UNL     1       1.716  12.389  91.540  1.00  0.00    -0.278 OA
HETATM   33  N   UNL     1       1.941  14.100  93.072  1.00  0.00    -0.271 NA
HETATM   34  H   UNL     1       2.406  14.922  93.440  1.00  0.00     0.127 HD
HETATM   35  H   UNL     1       0.919  15.062  93.082  1.00  0.00     0.127 HD
ENDBRANCH  26  31
ENDBRANCH  24  26
ENDBRANCH  19  22
ENDBRANCH  15  16
ENDBRANCH  11  14
ENDBRANCH   7   8
ENDBRANCH   2   7
TORSDOF 9
ENDMDL
MODEL 3
REMARK VINA RESULT:      -6.5      1.392      1.706
REMARK  9 active torsions:
REMARK  status: ('A' for Active; 'I' for Inactive)
REMARK    1  A    between atoms: O_2  and  C_17 
REMARK    2  A    between atoms: N_5  and  C_10 
REMARK    3  A    between atoms: N_6  and  C_14 
REMARK       I    between atoms: N_6  and  C_23 
REMARK       I    between atoms: N_7  and  C_22 
REMARK    4  A    between atoms: C_10  and  C_13 
REMARK    5  A    between atoms: C_14  and  C_17 
REMARK    6  A    between atoms: C_14  and  C_22 
REMARK    7  A    between atoms: C_20  and  C_25 
REMARK    8  A    between atoms: C_23  and  C_24 
REMARK    9  A    between atoms: C_28  and  C_31 
ROOT
HETATM    1  O   UNL     1      16.593   3.262  93.690  1.00  0.00    -0.388 OA
HETATM    2  N   UNL     1      13.889   2.906  92.873  1.00  0.00     0.096 N 
HETATM    3  C   UNL     1      14.783   1.760  93.091  1.00  0.00     0.299 C 
HETATM    4  C   UNL     1      14.669   4.081  92.459  1.00  0.00     0.299 C 
HETATM    5  C   UNL     1      15.847   2.123  94.124  1.00  0.00     0.198 C 
HETATM    6  C   UNL     1      15.735   4.389  93.505  1.00  0.00     0.198 C 
ENDROOT
BRANCH   2   7
HETATM    7  C   UNL     1      12.868   2.584  91.878  1.00  0.00     0.311 C 
BRANCH   7   8
HETATM    8  C   UNL     1      11.814   3.634  91.786  1.00  0.00    -0.030 A 
HETATM    9  C   UNL     1      11.374   4.072  90.536  1.00  0.00     0.010 A 
HETATM   10  C   UNL     1      10.390   5.056  90.448  1.00  0.00     0.021 A 
HETATM   11  C   UNL     1       9.844   5.600  91.610  1.00  0.00     0.018 A 
HETATM   12  C   UNL     1      10.281   5.163  92.859  1.00  0.00     0.021 A 
HETATM   13  C   UNL     1      11.266   4.180  92.947  1.00  0.00     0.010 A 
BRANCH  11  14
HETATM   14  C   UNL     1       8.832   6.608  91.520  1.00  0.00    -0.061 C 
HETATM   15  C   UNL     1       7.982   7.455  91.445  1.00  0.00    -0.061 C 
BRANCH  15  16
HETATM   16  C   UNL     1       6.972   8.462  91.356  1.00  0.00     0.018 A 
HETATM   17  C   UNL     1       7.201   9.728  91.896  1.00  0.00     0.022 A 
HETATM   18  C   UNL     1       6.216  10.712  91.806  1.00  0.00     0.018 A 
HETATM   19  C   UNL     1       5.026  10.409  91.178  1.00  0.00     0.032 A 
HETATM   20  C   UNL     1       4.776   9.165  90.637  1.00  0.00     0.018 A 
HETATM   21  C   UNL     1       5.759   8.181  90.726  1.00  0.00     0.022 A 
BRANCH  19  22
HETATM   22  C   UNL     1       3.977  11.456  91.084  1.00  0.00     0.252 C 
HETATM   23  O   UNL     1       2.992  11.258  90.377  1.00  0.00    -0.268 OA
HETATM   24  N   UNL     1       4.188  12.599  91.844  1.00  0.00    -0.342 N 
HETATM   25  H   UNL     1       5.015  12.682  92.425  1.00  0.00     0.163 HD
BRANCH  24  26
HETATM   26  C   UNL     1       3.251  13.692  91.878  1.00  0.00     0.199 C 
BRANCH  26  27
HETATM   27  C   UNL     1       3.170  14.362  93.255  1.00  0.00     0.145 C 
HETATM   28  C   UNL     1       1.924  13.952  94.032  1.00  0.00     0.042 C 
BRANCH  27  29
HETATM   29  O   UNL     1       4.326  14.022  94.020  1.00  0.00    -0.393 OA
HETATM   30  H   UNL     1       4.487  14.733  94.663  1.00  0.00     0.210 HD
ENDBRANCH  27  29
ENDBRANCH  26  27
BRANCH  26  31
HETATM   31  C   UNL     1       3.660  14.690  90.799  1.00  0.00     0.220 C 
HETATM   32  O   UNL     1       3.253  14.626  89.640  1.00  0.00    -0.278 OA
HETATM   33  N   UNL     1       4.551  15.624  91.267  1.00  0.00    -0.271 NA
HETATM   34  H   UNL     1       4.973  15.652  92.188  1.00  0.00     0.127 HD
HETATM   35  H   UNL     1       5.920  15.743  90.982  1.00  0.00     0.127 HD
ENDBRANCH  26  31
ENDBRANCH  24  26
ENDBRANCH  19  22
ENDBRANCH  15  16
ENDBRANCH  11  14
ENDBRANCH   7   8
ENDBRANCH   2   7
TORSDOF 9
ENDMDL
MODEL 4
REMARK VINA RESULT:      -5.8      2.475      3.293
REMARK  9 active torsions:
REMARK  status: ('A' for Active; 'I' for Inactive)
REMARK    1  A    between atoms: O_2  and  C_17 
REMARK    2  A    between atoms: N_5  and  C_10 
REMARK    3  A    between atoms: N_6  and  C_14 
REMARK       I    between atoms: N_6  and  C_23 
REMARK       I    between atoms: N_7  and  C_22 
REMARK    4  A    between atoms: C_10  and  C_13 
REMARK    5  A    between atoms: C_14  and  C_17 
REMARK    6  A    between atoms: C_14  and  C_22 
REMARK    7  A    between atoms: C_20  and  C_25 
REMARK    8  A    between atoms: C_23  and  C_24 
REMARK    9  A    between atoms: C_28  and  C_31 
ROOT
HETATM    1  O   UNL     1      17.467   4.572  93.539  1.00  0.00    -0.388 OA
HETATM    2  N   UNL     1      15.231   2.910  94.123  1.00  0.00     0.096 N 
HETATM    3  C   UNL     1      16.494   2.350  93.623  1.00  0.00     0.299 C 
HETATM    4  C   UNL     1      15.060   4.285  93.632  1.00  0.00     0.299 C 
HETATM    5  C   UNL     1      17.658   3.247  94.038  1.00  0.00     0.198 C 
HETATM    6  C   UNL     1      16.257   5.135  94.046  1.00  0.00     0.198 C 
ENDROOT
BRANCH   2   7
HETATM    7  C   UNL     1      14.101   2.072  93.728  1.00  0.00     0.311 C 
BRANCH   7   8
HETATM    8  C   UNL     1      13.048   2.842  93.006  1.00  0.00    -0.030 A 
HETATM    9  C   UNL     1      12.834   2.621  91.645  1.00  0.00     0.010 A 
HETATM   10  C   UNL     1      11.851   3.343  90.967  1.00  0.00     0.021 A 
HETATM   11  C   UNL     1      11.082   4.283  91.652  1.00  0.00     0.018 A 
HETATM   12  C   UNL     1      11.295   4.504  93.011  1.00  0.00     0.021 A 
HETATM   13  C   UNL     1      12.278   3.784  93.688  1.00  0.00     0.010 A 
BRANCH  11  14
HETATM   14  C   UNL     1      10.072   5.022  90.957  1.00  0.00    -0.061 C 
HETATM   15  C   UNL     1       9.223   5.642  90.374  1.00  0.00    -0.061 C 
BRANCH  15  16
HETATM   16  C   UNL     1       8.214   6.380  89.681  1.00  0.00     0.018 A 
HETATM   17  C   UNL     1       7.739   7.579  90.213  1.00  0.00     0.022 A 
HETATM   18  C   UNL     1       6.756   8.300  89.535  1.00  0.00     0.018 A 
HETATM   19  C   UNL     1       6.271   7.807  88.341  1.00  0.00     0.032 A 
HETATM   20  C   UNL     1       6.724   6.625  87.795  1.00  0.00     0.018 A 
HETATM   21  C   UNL     1       7.707   5.902  88.472  1.00  0.00     0.022 A 
BRANCH  19  22
HETATM   22  C   UNL     1       5.223   8.575  87.621  1.00  0.00     0.252 C 
HETATM   23  O   UNL     1       5.065   8.391  86.416  1.00  0.00    -0.268 OA
HETATM   24  N   UNL     1       4.468   9.447  88.394  1.00  0.00    -0.342 N 
HETATM   25  H   UNL     1       4.639   9.528  89.389  1.00  0.00     0.163 HD
BRANCH  24  26
HETATM   26  C   UNL     1       3.399  10.243  87.845  1.00  0.00     0.199 C 
BRANCH  26  27
HETATM   27  C   UNL     1       2.011   9.704  88.211  1.00  0.00     0.145 C 
HETATM   28  C   UNL     1       1.642   8.454  87.420  1.00  0.00     0.042 C 
BRANCH  27  29
HETATM   29  O   UNL     1       1.969   9.400  89.605  1.00  0.00    -0.393 OA
HETATM   30  H   UNL     1       1.959  10.236  90.100  1.00  0.00     0.210 HD
ENDBRANCH  27  29
ENDBRANCH  26  27
BRANCH  26  31
HETATM   31  C   UNL     1       3.586  11.674  88.336  1.00  0.00     0.220 C 
HETATM   32  O   UNL     1       2.777  12.242  89.068  1.00  0.00    -0.278 OA
HETATM   33  N   UNL     1       4.728  12.250  87.835  1.00  0.00    -0.271 NA
HETATM   34  H   UNL     1       5.367  11.844  87.161  1.00  0.00     0.127 HD
HETATM   35  H   UNL     1       4.842  13.257  86.862  1.00  0.00     0.127 HD
ENDBRANCH  26  31
ENDBRANCH  24  26
ENDBRANCH  19  22
ENDBRANCH  15  16
ENDBRANCH  11  14
ENDBRANCH   7   8
ENDBRANCH   2   7
TORSDOF 9
ENDMDL
MODEL 5
REMARK VINA RESULT:      -5.8      1.450      2.338
REMARK  9 active torsions:
REMARK  status: ('A' for Active; 'I' for Inactive)
REMARK    1  A    between atoms: O_2  and  C_17 
REMARK    2  A    between atoms: N_5  and  C_10 
REMARK    3  A    between atoms: N_6  and  C_14 
REMARK       I    between atoms: N_6  and  C_23 
REMARK       I    between atoms: N_7  and  C_22 
REMARK    4  A    between atoms: C_10  and  C_13 
REMARK    5  A    between atoms: C_14  and  C_17 
REMARK    6  A    between atoms: C_14  and  C_22 
REMARK    7  A    between atoms: C_20  and  C_25 
REMARK    8  A    between atoms: C_23  and  C_24 
REMARK    9  A    between atoms: C_28  and  C_31 
ROOT
HETATM    1  O   UNL     1      16.344   2.702  93.509  1.00  0.00    -0.388 OA
HETATM    2  N   UNL     1      13.590   2.616  92.792  1.00  0.00     0.096 N 
HETATM    3  C   UNL     1      14.323   1.401  93.174  1.00  0.00     0.299 C 
HETATM    4  C   UNL     1      14.511   3.591  92.191  1.00  0.00     0.299 C 
HETATM    5  C   UNL     1      15.462   1.760  94.124  1.00  0.00     0.198 C 
HETATM    6  C   UNL     1      15.646   3.899  93.163  1.00  0.00     0.198 C 
ENDROOT
BRANCH   2   7
HETATM    7  C   UNL     1      12.500   2.296  91.873  1.00  0.00     0.311 C 
BRANCH   7   8
HETATM    8  C   UNL     1      11.531   3.421  91.727  1.00  0.00    -0.030 A 
HETATM    9  C   UNL     1      11.133   4.146  92.851  1.00  0.00     0.010 A 
HETATM   10  C   UNL     1      10.225   5.197  92.716  1.00  0.00     0.021 A 
HETATM   11  C   UNL     1       9.719   5.523  91.458  1.00  0.00     0.018 A 
HETATM   12  C   UNL     1      10.117   4.799  90.336  1.00  0.00     0.021 A 
HETATM   13  C   UNL     1      11.023   3.747  90.470  1.00  0.00     0.010 A 
BRANCH  11  14
HETATM   14  C   UNL     1       8.790   6.602  91.319  1.00  0.00    -0.061 C 
HETATM   15  C   UNL     1       8.009   7.509  91.204  1.00  0.00    -0.061 C 
BRANCH  15  16
HETATM   16  C   UNL     1       7.082   8.588  91.065  1.00  0.00     0.018 A 
HETATM   17  C   UNL     1       7.149   9.680  91.931  1.00  0.00     0.022 A 
HETATM   18  C   UNL     1       6.245  10.734  91.794  1.00  0.00     0.018 A 
HETATM   19  C   UNL     1       5.297  10.673  90.795  1.00  0.00     0.032 A 
HETATM   20  C   UNL     1       5.209   9.605  89.927  1.00  0.00     0.018 A 
HETATM   21  C   UNL     1       6.112   8.550  90.063  1.00  0.00     0.022 A 
BRANCH  19  22
HETATM   22  C   UNL     1       4.333  11.795  90.651  1.00  0.00     0.252 C 
HETATM   23  O   UNL     1       3.398  11.684  89.861  1.00  0.00    -0.268 OA
HETATM   24  N   UNL     1       4.560  12.899  91.460  1.00  0.00    -0.342 N 
HETATM   25  H   UNL     1       5.340  12.909  92.107  1.00  0.00     0.163 HD
BRANCH  24  26
HETATM   26  C   UNL     1       3.701  14.055  91.453  1.00  0.00     0.199 C 
BRANCH  26  27
HETATM   27  C   UNL     1       3.590  14.704  90.068  1.00  0.00     0.145 C 
HETATM   28  C   UNL     1       4.942  14.843  89.378  1.00  0.00     0.042 C 
BRANCH  27  29
HETATM   29  O   UNL     1       2.727  13.923  89.242  1.00  0.00    -0.393 OA
HETATM   30  H   UNL     1       1.998  13.590  89.793  1.00  0.00     0.210 HD
ENDBRANCH  27  29
ENDBRANCH  26  27
BRANCH  26  31
HETATM   31  C   UNL     1       2.334  13.623  91.974  1.00  0.00     0.220 C 
HETATM   32  O   UNL     1       1.359  14.372  92.000  1.00  0.00    -0.278 OA
HETATM   33  N   UNL     1       2.341  12.330  92.438  1.00  0.00    -0.271 NA
HETATM   34  H   UNL     1       3.144  11.716  92.514  1.00  0.00     0.127 HD
HETATM   35  H   UNL     1       2.268  11.879  93.765  1.00  0.00     0.127 HD
ENDBRANCH  26  31
ENDBRANCH  24  26
ENDBRANCH  19  22
ENDBRANCH  15  16
ENDBRANCH  11  14
ENDBRANCH   7   8
ENDBRANCH   2   7
TORSDOF 9
ENDMDL
MODEL 6
REMARK VINA RESULT:      -5.5      2.005     12.566
REMARK  9 active torsions:
REMARK  status: ('A' for Active; 'I' for Inactive)
REMARK    1  A    between atoms: O_2  and  C_17 
REMARK    2  A    between atoms: N_5  and  C_10 
REMARK    3  A    between atoms: N_6  and  C_14 
REMARK       I    between atoms: N_6  and  C_23 
REMARK       I    between atoms: N_7  and  C_22 
REMARK    4  A    between atoms: C_10  and  C_13 
REMARK    5  A    between atoms: C_14  and  C_17 
REMARK    6  A    between atoms: C_14  and  C_22 
REMARK    7  A    between atoms: C_20  and  C_25 
REMARK    8  A    between atoms: C_23  and  C_24 
REMARK    9  A    between atoms: C_28  and  C_31 
ROOT
HETATM    1  O   UNL     1       2.024  15.542  93.026  1.00  0.00    -0.388 OA
HETATM    2  N   UNL     1       3.375  13.417  91.699  1.00  0.00     0.096 N 
HETATM    3  C   UNL     1       4.076  14.649  92.086  1.00  0.00     0.299 C 
HETATM    4  C   UNL     1       1.956  13.704  91.445  1.00  0.00     0.299 C 
HETATM    5  C   UNL     1       3.398  15.268  93.307  1.00  0.00     0.198 C 
HETATM    6  C   UNL     1       1.328  14.345  92.679  1.00  0.00     0.198 C 
ENDROOT
BRANCH   2   7
HETATM    7  C   UNL     1       4.001  12.812  90.525  1.00  0.00     0.311 C 
BRANCH   7   8
HETATM    8  C   UNL     1       4.987  11.755  90.888  1.00  0.00    -0.030 A 
HETATM    9  C   UNL     1       6.010  11.422  89.999  1.00  0.00     0.010 A 
HETATM   10  C   UNL     1       6.932  10.432  90.337  1.00  0.00     0.021 A 
HETATM   11  C   UNL     1       6.832   9.777  91.564  1.00  0.00     0.018 A 
HETATM   12  C   UNL     1       5.811  10.109  92.452  1.00  0.00     0.021 A 
HETATM   13  C   UNL     1       4.888  11.098  92.115  1.00  0.00     0.010 A 
BRANCH  11  14
HETATM   14  C   UNL     1       7.779   8.762  91.912  1.00  0.00    -0.061 C 
HETATM   15  C   UNL     1       8.575   7.909  92.203  1.00  0.00    -0.061 C 
BRANCH  15  16
HETATM   16  C   UNL     1       9.523   6.896  92.549  1.00  0.00     0.018 A 
HETATM   17  C   UNL     1      10.169   6.940  93.785  1.00  0.00     0.022 A 
HETATM   18  C   UNL     1      11.091   5.950  94.124  1.00  0.00     0.018 A 
HETATM   19  C   UNL     1      11.345   4.939  93.221  1.00  0.00     0.032 A 
HETATM   20  C   UNL     1      10.720   4.873  91.994  1.00  0.00     0.018 A 
HETATM   21  C   UNL     1       9.798   5.863  91.654  1.00  0.00     0.022 A 
BRANCH  19  22
HETATM   22  C   UNL     1      12.329   3.885  93.582  1.00  0.00     0.252 C 
HETATM   23  O   UNL     1      11.926   2.821  94.044  1.00  0.00    -0.268 OA
HETATM   24  N   UNL     1      13.661   4.188  93.339  1.00  0.00    -0.342 N 
HETATM   25  H   UNL     1      13.918   5.080  92.931  1.00  0.00     0.163 HD
BRANCH  24  26
HETATM   26  C   UNL     1      14.730   3.262  93.612  1.00  0.00     0.199 C 
BRANCH  26  27
HETATM   27  C   UNL     1      14.928   2.235  92.489  1.00  0.00     0.145 C 
HETATM   28  C   UNL     1      14.108   0.968  92.706  1.00  0.00     0.042 C 
BRANCH  27  29
HETATM   29  O   UNL     1      14.559   2.818  91.240  1.00  0.00    -0.393 OA
HETATM   30  H   UNL     1      14.880   2.239  90.527  1.00  0.00     0.210 HD
ENDBRANCH  27  29
ENDBRANCH  26  27
BRANCH  26  31
HETATM   31  C   UNL     1      16.000   4.072  93.852  1.00  0.00     0.220 C 
HETATM   32  O   UNL     1      16.036   5.299  93.772  1.00  0.00    -0.278 OA
HETATM   33  N   UNL     1      17.083   3.272  94.124  1.00  0.00    -0.271 NA
HETATM   34  H   UNL     1      17.108   2.259  94.109  1.00  0.00     0.127 HD
HETATM   35  H   UNL     1      18.190   2.996  93.306  1.00  0.00     0.127 HD
ENDBRANCH  26  31
ENDBRANCH  24  26
ENDBRANCH  19  22
ENDBRANCH  15  16
ENDBRANCH  11  14
ENDBRANCH   7   8
ENDBRANCH   2   7
TORSDOF 9
ENDMDL
MODEL 7
REMARK VINA RESULT:      -5.5      2.237      3.120
REMARK  9 active torsions:
REMARK  status: ('A' for Active; 'I' for Inactive)
REMARK    1  A    between atoms: O_2  and  C_17 
REMARK    2  A    between atoms: N_5  and  C_10 
REMARK    3  A    between atoms: N_6  and  C_14 
REMARK       I    between atoms: N_6  and  C_23 
REMARK       I    between atoms: N_7  and  C_22 
REMARK    4  A    between atoms: C_10  and  C_13 
REMARK    5  A    between atoms: C_14  and  C_17 
REMARK    6  A    between atoms: C_14  and  C_22 
REMARK    7  A    between atoms: C_20  and  C_25 
REMARK    8  A    between atoms: C_23  and  C_24 
REMARK    9  A    between atoms: C_28  and  C_31 
ROOT
HETATM    1  O   UNL     1      17.390   4.538  93.482  1.00  0.00    -0.388 OA
HETATM    2  N   UNL     1      15.127   2.869  93.918  1.00  0.00     0.096 N 
HETATM    3  C   UNL     1      16.372   2.340  93.344  1.00  0.00     0.299 C 
HETATM    4  C   UNL     1      14.979   4.291  93.577  1.00  0.00     0.299 C 
HETATM    5  C   UNL     1      17.559   3.164  93.835  1.00  0.00     0.198 C 
HETATM    6  C   UNL     1      16.198   5.069  94.062  1.00  0.00     0.198 C 
ENDROOT
BRANCH   2   7
HETATM    7  C   UNL     1      13.974   2.100  93.452  1.00  0.00     0.311 C 
BRANCH   7   8
HETATM    8  C   UNL     1      12.896   2.970  92.902  1.00  0.00    -0.030 A 
HETATM    9  C   UNL     1      12.658   3.000  91.527  1.00  0.00     0.010 A 
HETATM   10  C   UNL     1      11.651   3.816  91.011  1.00  0.00     0.021 A 
HETATM   11  C   UNL     1      10.881   4.599  91.870  1.00  0.00     0.018 A 
HETATM   12  C   UNL     1      11.118   4.570  93.243  1.00  0.00     0.021 A 
HETATM   13  C   UNL     1      12.125   3.756  93.759  1.00  0.00     0.010 A 
BRANCH  11  14
HETATM   14  C   UNL     1       9.847   5.434  91.341  1.00  0.00    -0.061 C 
HETATM   15  C   UNL     1       8.977   6.135  90.896  1.00  0.00    -0.061 C 
BRANCH  15  16
HETATM   16  C   UNL     1       7.943   6.969  90.368  1.00  0.00     0.018 A 
HETATM   17  C   UNL     1       7.611   8.160  91.014  1.00  0.00     0.022 A 
HETATM   18  C   UNL     1       6.604   8.975  90.497  1.00  0.00     0.018 A 
HETATM   19  C   UNL     1       5.953   8.582  89.347  1.00  0.00     0.032 A 
HETATM   20  C   UNL     1       6.262   7.409  88.690  1.00  0.00     0.018 A 
HETATM   21  C   UNL     1       7.269   6.594  89.206  1.00  0.00     0.022 A 
BRANCH  19  22
HETATM   22  C   UNL     1       4.879   9.450  88.798  1.00  0.00     0.252 C 
HETATM   23  O   UNL     1       4.666   9.448  87.588  1.00  0.00    -0.268 OA
HETATM   24  N   UNL     1       4.165  10.195  89.726  1.00  0.00    -0.342 N 
HETATM   25  H   UNL     1       4.381  10.127  90.714  1.00  0.00     0.163 HD
BRANCH  24  26
HETATM   26  C   UNL     1       3.079  11.065  89.352  1.00  0.00     0.199 C 
BRANCH  26  27
HETATM   27  C   UNL     1       3.559  12.375  88.716  1.00  0.00     0.145 C 
HETATM   28  C   UNL     1       4.610  13.084  89.563  1.00  0.00     0.042 C 
BRANCH  27  29
HETATM   29  O   UNL     1       4.108  12.107  87.426  1.00  0.00    -0.393 OA
HETATM   30  H   UNL     1       3.710  11.286  87.090  1.00  0.00     0.210 HD
ENDBRANCH  27  29
ENDBRANCH  26  27
BRANCH  26  31
HETATM   31  C   UNL     1       2.168  10.291  88.405  1.00  0.00     0.220 C 
HETATM   32  O   UNL     1       1.758  10.753  87.342  1.00  0.00    -0.278 OA
HETATM   33  N   UNL     1       1.838   9.052  88.900  1.00  0.00    -0.271 NA
HETATM   34  H   UNL     1       2.083   8.676  89.808  1.00  0.00     0.127 HD
HETATM   35  H   UNL     1       0.602   8.616  89.405  1.00  0.00     0.127 HD
ENDBRANCH  26  31
ENDBRANCH  24  26
ENDBRANCH  19  22
ENDBRANCH  15  16
ENDBRANCH  11  14
ENDBRANCH   7   8
ENDBRANCH   2   7
TORSDOF 9
ENDMDL
MODEL 8
REMARK VINA RESULT:      -5.3      1.609     12.325
REMARK  9 active torsions:
REMARK  status: ('A' for Active; 'I' for Inactive)
REMARK    1  A    between atoms: O_2  and  C_17 
REMARK    2  A    between atoms: N_5  and  C_10 
REMARK    3  A    between atoms: N_6  and  C_14 
REMARK       I    between atoms: N_6  and  C_23 
REMARK       I    between atoms: N_7  and  C_22 
REMARK    4  A    between atoms: C_10  and  C_13 
REMARK    5  A    between atoms: C_14  and  C_17 
REMARK    6  A    between atoms: C_14  and  C_22 
REMARK    7  A    between atoms: C_20  and  C_25 
REMARK    8  A    between atoms: C_23  and  C_24 
REMARK    9  A    between atoms: C_28  and  C_31 
ROOT
HETATM    1  O   UNL     1       3.629  14.452  92.087  1.00  0.00    -0.388 OA
HETATM    2  N   UNL     1       3.851  13.476  89.422  1.00  0.00     0.096 N 
HETATM    3  C   UNL     1       3.080  12.753  90.443  1.00  0.00     0.299 C 
HETATM    4  C   UNL     1       4.938  14.235  90.056  1.00  0.00     0.299 C 
HETATM    5  C   UNL     1       2.549  13.736  91.483  1.00  0.00     0.198 C 
HETATM    6  C   UNL     1       4.365  15.182  91.105  1.00  0.00     0.198 C 
ENDROOT
BRANCH   2   7
HETATM    7  C   UNL     1       4.378  12.551  88.420  1.00  0.00     0.311 C 
BRANCH   7   8
HETATM    8  C   UNL     1       5.284  11.527  89.014  1.00  0.00    -0.030 A 
HETATM    9  C   UNL     1       4.749  10.374  89.590  1.00  0.00     0.010 A 
HETATM   10  C   UNL     1       5.596   9.416  90.147  1.00  0.00     0.021 A 
HETATM   11  C   UNL     1       6.976   9.610  90.127  1.00  0.00     0.018 A 
HETATM   12  C   UNL     1       7.512  10.761  89.552  1.00  0.00     0.021 A 
HETATM   13  C   UNL     1       6.665  11.720  88.995  1.00  0.00     0.010 A 
BRANCH  11  14
HETATM   14  C   UNL     1       7.845   8.626  90.697  1.00  0.00    -0.061 C 
HETATM   15  C   UNL     1       8.575   7.799  91.175  1.00  0.00    -0.061 C 
BRANCH  15  16
HETATM   16  C   UNL     1       9.443   6.817  91.745  1.00  0.00     0.018 A 
HETATM   17  C   UNL     1      10.015   5.838  90.932  1.00  0.00     0.022 A 
HETATM   18  C   UNL     1      10.864   4.881  91.487  1.00  0.00     0.018 A 
HETATM   19  C   UNL     1      11.124   4.925  92.841  1.00  0.00     0.032 A 
HETATM   20  C   UNL     1      10.571   5.882  93.666  1.00  0.00     0.018 A 
HETATM   21  C   UNL     1       9.721   6.839  93.111  1.00  0.00     0.022 A 
BRANCH  19  22
HETATM   22  C   UNL     1      12.027   3.904  93.433  1.00  0.00     0.252 C 
HETATM   23  O   UNL     1      11.545   2.873  93.896  1.00  0.00    -0.268 OA
HETATM   24  N   UNL     1      13.383   4.195  93.391  1.00  0.00    -0.342 N 
HETATM   25  H   UNL     1      13.710   5.057  92.970  1.00  0.00     0.163 HD
BRANCH  24  26
HETATM   26  C   UNL     1      14.386   3.295  93.902  1.00  0.00     0.199 C 
BRANCH  26  27
HETATM   27  C   UNL     1      14.443   1.971  93.130  1.00  0.00     0.145 C 
HETATM   28  C   UNL     1      15.210   2.092  91.818  1.00  0.00     0.042 C 
BRANCH  27  29
HETATM   29  O   UNL     1      15.064   0.973  93.940  1.00  0.00    -0.393 OA
HETATM   30  H   UNL     1      14.712   0.106  93.679  1.00  0.00     0.210 HD
ENDBRANCH  27  29
ENDBRANCH  26  27
BRANCH  26  31
HETATM   31  C   UNL     1      15.727   4.020  93.860  1.00  0.00     0.220 C 
HETATM   32  O   UNL     1      15.835   5.213  93.585  1.00  0.00    -0.278 OA
HETATM   33  N   UNL     1      16.780   3.178  94.124  1.00  0.00    -0.271 NA
HETATM   34  H   UNL     1      16.735   2.175  94.265  1.00  0.00     0.127 HD
HETATM   35  H   UNL     1      17.750   2.690  93.234  1.00  0.00     0.127 HD
ENDBRANCH  26  31
ENDBRANCH  24  26
ENDBRANCH  19  22
ENDBRANCH  15  16
ENDBRANCH  11  14
ENDBRANCH   7   8
ENDBRANCH   2   7
TORSDOF 9
ENDMDL
MODEL 9
REMARK VINA RESULT:      -5.0      2.266     12.487
REMARK  9 active torsions:
REMARK  status: ('A' for Active; 'I' for Inactive)
REMARK    1  A    between atoms: O_2  and  C_17 
REMARK    2  A    between atoms: N_5  and  C_10 
REMARK    3  A    between atoms: N_6  and  C_14 
REMARK       I    between atoms: N_6  and  C_23 
REMARK       I    between atoms: N_7  and  C_22 
REMARK    4  A    between atoms: C_10  and  C_13 
REMARK    5  A    between atoms: C_14  and  C_17 
REMARK    6  A    between atoms: C_14  and  C_22 
REMARK    7  A    between atoms: C_20  and  C_25 
REMARK    8  A    between atoms: C_23  and  C_24 
REMARK    9  A    between atoms: C_28  and  C_31 
ROOT
HETATM    1  O   UNL     1       1.753  15.256  93.008  1.00  0.00    -0.388 OA
HETATM    2  N   UNL     1       2.433  12.565  92.377  1.00  0.00     0.096 N 
HETATM    3  C   UNL     1       2.790  13.676  91.484  1.00  0.00     0.299 C 
HETATM    4  C   UNL     1       1.214  12.894  93.128  1.00  0.00     0.299 C 
HETATM    5  C   UNL     1       2.956  14.958  92.297  1.00  0.00     0.198 C 
HETATM    6  C   UNL     1       1.416  14.193  93.900  1.00  0.00     0.198 C 
ENDROOT
BRANCH   2   7
HETATM    7  C   UNL     1       2.259  11.328  91.618  1.00  0.00     0.311 C 
BRANCH   7   8
HETATM    8  C   UNL     1       3.494  10.493  91.600  1.00  0.00    -0.030 A 
HETATM    9  C   UNL     1       3.823   9.760  90.459  1.00  0.00     0.010 A 
HETATM   10  C   UNL     1       4.977   8.977  90.441  1.00  0.00     0.021 A 
HETATM   11  C   UNL     1       5.803   8.930  91.564  1.00  0.00     0.018 A 
HETATM   12  C   UNL     1       5.476   9.662  92.704  1.00  0.00     0.021 A 
HETATM   13  C   UNL     1       4.321  10.444  92.722  1.00  0.00     0.010 A 
BRANCH  11  14
HETATM   14  C   UNL     1       6.988   8.129  91.545  1.00  0.00    -0.061 C 
HETATM   15  C   UNL     1       7.985   7.456  91.530  1.00  0.00    -0.061 C 
BRANCH  15  16
HETATM   16  C   UNL     1       9.169   6.656  91.512  1.00  0.00     0.018 A 
HETATM   17  C   UNL     1       9.643   6.140  90.305  1.00  0.00     0.022 A 
HETATM   18  C   UNL     1      10.800   5.362  90.288  1.00  0.00     0.018 A 
HETATM   19  C   UNL     1      11.457   5.117  91.475  1.00  0.00     0.032 A 
HETATM   20  C   UNL     1      11.009   5.615  92.681  1.00  0.00     0.018 A 
HETATM   21  C   UNL     1       9.852   6.393  92.700  1.00  0.00     0.022 A 
BRANCH  19  22
HETATM   22  C   UNL     1      12.689   4.286  91.456  1.00  0.00     0.252 C 
HETATM   23  O   UNL     1      13.068   3.800  90.394  1.00  0.00    -0.268 OA
HETATM   24  N   UNL     1      13.344   4.141  92.672  1.00  0.00    -0.342 N 
HETATM   25  H   UNL     1      12.985   4.593  93.505  1.00  0.00     0.163 HD
BRANCH  24  26
HETATM   26  C   UNL     1      14.563   3.386  92.811  1.00  0.00     0.199 C 
BRANCH  26  27
HETATM   27  C   UNL     1      15.509   3.976  93.865  1.00  0.00     0.145 C 
HETATM   28  C   UNL     1      16.838   3.232  93.937  1.00  0.00     0.042 C 
BRANCH  27  29
HETATM   29  O   UNL     1      15.762   5.348  93.565  1.00  0.00    -0.393 OA
HETATM   30  H   UNL     1      14.913   5.821  93.561  1.00  0.00     0.210 HD
ENDBRANCH  27  29
ENDBRANCH  26  27
BRANCH  26  31
HETATM   31  C   UNL     1      14.185   1.948  93.148  1.00  0.00     0.220 C 
HETATM   32  O   UNL     1      14.713   1.312  94.058  1.00  0.00    -0.278 OA
HETATM   33  N   UNL     1      13.226   1.451  92.298  1.00  0.00    -0.271 NA
HETATM   34  H   UNL     1      12.835   1.914  91.486  1.00  0.00     0.127 HD
HETATM   35  H   UNL     1      13.373   0.490  91.285  1.00  0.00     0.127 HD
ENDBRANCH  26  31
ENDBRANCH  24  26
ENDBRANCH  19  22
ENDBRANCH  15  16
ENDBRANCH  11  14
ENDBRANCH   7   8
ENDBRANCH   2   7
TORSDOF 9
ENDMDL
