MODEL 1
REMARK VINA RESULT:      -6.7      0.000      0.000
REMARK  11 active torsions:
REMARK  status: ('A' for Active; 'I' for Inactive)
REMARK    1  A    between atoms: O_2  and  C_18 
REMARK    2  A    between atoms: O_5  and  P_8 
REMARK    3  A    between atoms: N_6  and  C_11 
REMARK    4  A    between atoms: N_7  and  C_15 
REMARK       I    between atoms: N_7  and  C_24 
REMARK    5  A    between atoms: P_8  and  C_23 
REMARK    6  A    between atoms: C_11  and  C_14 
REMARK    7  A    between atoms: C_15  and  C_18 
REMARK    8  A    between atoms: C_15  and  C_23 
REMARK    9  A    between atoms: C_21  and  C_26 
REMARK   10  A    between atoms: C_24  and  C_25 
REMARK   11  A    between atoms: C_29  and  C_32 
ROOT
HETATM    1  O   UNL     1      16.902   3.732  93.725  1.00  0.00     0.000 OA
HETATM    2  N   UNL     1      14.243   2.889  93.159  1.00  0.00     0.000 N 
HETATM    3  C   UNL     1      15.363   1.938  93.174  1.00  0.00     0.000 C 
HETATM    4  C   UNL     1      14.722   4.226  92.782  1.00  0.00     0.000 C 
HETATM    5  C   UNL     1      16.451   2.436  94.123  1.00  0.00     0.000 C 
HETATM    6  C   UNL     1      15.825   4.669  93.738  1.00  0.00     0.000 C 
ENDROOT
BRANCH   2   7
HETATM    7  C   UNL     1      13.193   2.437  92.248  1.00  0.00     0.000 C 
BRANCH   7   8
HETATM    8  C   UNL     1      12.223   3.520  91.917  1.00  0.00     0.000 A 
HETATM    9  C   UNL     1      12.068   3.935  90.594  1.00  0.00     0.000 A 
HETATM   10  C   UNL     1      11.163   4.949  90.283  1.00  0.00     0.000 A 
HETATM   11  C   UNL     1      10.412   5.547  91.295  1.00  0.00     0.000 A 
HETATM   12  C   UNL     1      10.566   5.133  92.616  1.00  0.00     0.000 A 
HETATM   13  C   UNL     1      11.472   4.119  92.928  1.00  0.00     0.000 A 
BRANCH  11  14
HETATM   14  C   UNL     1       9.482   6.586  90.976  1.00  0.00     0.000 C 
HETATM   15  C   UNL     1       8.702   7.460  90.707  1.00  0.00     0.000 C 
BRANCH  15  16
HETATM   16  C   UNL     1       7.773   8.499  90.387  1.00  0.00     0.000 A 
HETATM   17  C   UNL     1       6.416   8.328  90.662  1.00  0.00     0.000 A 
HETATM   18  C   UNL     1       5.510   9.343  90.352  1.00  0.00     0.000 A 
HETATM   19  C   UNL     1       5.981  10.505  89.777  1.00  0.00     0.000 A 
HETATM   20  C   UNL     1       7.318  10.697  89.495  1.00  0.00     0.000 A 
HETATM   21  C   UNL     1       8.224   9.683  89.804  1.00  0.00     0.000 A 
BRANCH  19  22
HETATM   22  C   UNL     1       5.016  11.585  89.445  1.00  0.00     0.000 C 
HETATM   23  O   UNL     1       4.664  11.737  88.278  1.00  0.00     0.000 OA
HETATM   24  N   UNL     1       4.558  12.340  90.516  1.00  0.00     0.000 N 
HETATM   25  HN  UNL     1       4.874  12.140  91.457  1.00  0.00     0.000 HD
BRANCH  24  26
HETATM   26  C   UNL     1       3.601  13.406  90.359  1.00  0.00     0.000 C 
BRANCH  26  27
HETATM   27  C   UNL     1       2.291  13.144  91.112  1.00  0.00     0.000 C 
HETATM   28  C   UNL     1       2.503  12.338  92.389  1.00  0.00     0.000 C 
BRANCH  27  29
HETATM   29  O   UNL     1       1.675  14.387  91.445  1.00  0.00     0.000 OA
HETATM   30  H   UNL     1       2.342  14.956  91.863  1.00  0.00     0.000 HD
ENDBRANCH  27  29
ENDBRANCH  26  27
BRANCH  26  31
HETATM   31  C   UNL     1       4.262  14.698  90.830  1.00  0.00     0.000 C 
HETATM   32  O   UNL     1       4.286  15.046  92.009  1.00  0.00     0.000 OA
BRANCH  31  33
HETATM   33  P   UNL     1       4.782  15.425  89.787  1.00  0.00     0.000 P 
HETATM   34  H   UNL     1       3.752  16.148  89.220  1.00  0.00     0.000 HD
BRANCH  33  35
HETATM   35  O   UNL     1       5.395  14.680  88.769  1.00  0.00     0.000 OA
HETATM   36  H   UNL     1       5.139  15.204  87.991  1.00  0.00     0.000 HD
ENDBRANCH  33  35
ENDBRANCH  31  33
ENDBRANCH  26  31
ENDBRANCH  24  26
ENDBRANCH  19  22
ENDBRANCH  15  16
ENDBRANCH  11  14
ENDBRANCH   7   8
ENDBRANCH   2   7
TORSDOF 11
ENDMDL
MODEL 2
REMARK VINA RESULT:      -5.2      3.605     12.385
REMARK  11 active torsions:
REMARK  status: ('A' for Active; 'I' for Inactive)
REMARK    1  A    between atoms: O_2  and  C_18 
REMARK    2  A    between atoms: O_5  and  P_8 
REMARK    3  A    between atoms: N_6  and  C_11 
REMARK    4  A    between atoms: N_7  and  C_15 
REMARK       I    between atoms: N_7  and  C_24 
REMARK    5  A    between atoms: P_8  and  C_23 
REMARK    6  A    between atoms: C_11  and  C_14 
REMARK    7  A    between atoms: C_15  and  C_18 
REMARK    8  A    between atoms: C_15  and  C_23 
REMARK    9  A    between atoms: C_21  and  C_26 
REMARK   10  A    between atoms: C_24  and  C_25 
REMARK   11  A    between atoms: C_29  and  C_32 
ROOT
HETATM    1  O   UNL     1       3.096  14.905  93.882  1.00  0.00     0.000 OA
HETATM    2  N   UNL     1       2.680  14.778  91.069  1.00  0.00     0.000 N 
HETATM    3  C   UNL     1       1.794  14.078  92.009  1.00  0.00     0.000 C 
HETATM    4  C   UNL     1       4.028  14.897  91.642  1.00  0.00     0.000 C 
HETATM    5  C   UNL     1       1.775  14.813  93.347  1.00  0.00     0.000 C 
HETATM    6  C   UNL     1       3.957  15.611  92.988  1.00  0.00     0.000 C 
ENDROOT
BRANCH   2   7
HETATM    7  C   UNL     1       2.722  14.084  89.783  1.00  0.00     0.000 C 
BRANCH   7   8
HETATM    8  C   UNL     1       3.713  12.971  89.769  1.00  0.00     0.000 A 
HETATM    9  C   UNL     1       4.976  13.170  89.210  1.00  0.00     0.000 A 
HETATM   10  C   UNL     1       5.904  12.128  89.195  1.00  0.00     0.000 A 
HETATM   11  C   UNL     1       5.569  10.890  89.741  1.00  0.00     0.000 A 
HETATM   12  C   UNL     1       4.308  10.690  90.300  1.00  0.00     0.000 A 
HETATM   13  C   UNL     1       3.380  11.731  90.314  1.00  0.00     0.000 A 
BRANCH  11  14
HETATM   14  C   UNL     1       6.521   9.822  89.727  1.00  0.00     0.000 C 
HETATM   15  C   UNL     1       7.322   8.925  89.715  1.00  0.00     0.000 C 
BRANCH  15  16
HETATM   16  C   UNL     1       8.274   7.859  89.701  1.00  0.00     0.000 A 
HETATM   17  C   UNL     1       9.052   7.634  88.565  1.00  0.00     0.000 A 
HETATM   18  C   UNL     1       9.983   6.596  88.552  1.00  0.00     0.000 A 
HETATM   19  C   UNL     1      10.116   5.806  89.675  1.00  0.00     0.000 A 
HETATM   20  C   UNL     1       9.359   6.008  90.811  1.00  0.00     0.000 A 
HETATM   21  C   UNL     1       8.428   7.046  90.824  1.00  0.00     0.000 A 
BRANCH  19  22
HETATM   22  C   UNL     1      11.107   4.699  89.661  1.00  0.00     0.000 C 
HETATM   23  O   UNL     1      11.300   4.080  88.617  1.00  0.00     0.000 OA
HETATM   24  N   UNL     1      11.771   4.462  90.856  1.00  0.00     0.000 N 
HETATM   25  HN  UNL     1      11.577   5.030  91.672  1.00  0.00     0.000 HD
BRANCH  24  26
HETATM   26  C   UNL     1      12.776   3.439  90.995  1.00  0.00     0.000 C 
BRANCH  26  27
HETATM   27  C   UNL     1      14.155   4.007  91.355  1.00  0.00     0.000 C 
HETATM   28  C   UNL     1      15.268   2.976  91.208  1.00  0.00     0.000 C 
BRANCH  27  29
HETATM   29  O   UNL     1      14.445   5.124  90.515  1.00  0.00     0.000 OA
HETATM   30  H   UNL     1      13.806   5.829  90.714  1.00  0.00     0.000 HD
ENDBRANCH  27  29
ENDBRANCH  26  27
BRANCH  26  31
HETATM   31  C   UNL     1      12.292   2.449  92.050  1.00  0.00     0.000 C 
HETATM   32  O   UNL     1      12.615   1.263  92.053  1.00  0.00     0.000 OA
BRANCH  31  33
HETATM   33  P   UNL     1      11.435   3.031  92.953  1.00  0.00     0.000 P 
HETATM   34  H   UNL     1      10.471   3.715  92.241  1.00  0.00     0.000 HD
BRANCH  33  35
HETATM   35  O   UNL     1      12.020   3.929  93.857  1.00  0.00     0.000 OA
HETATM   36  H   UNL     1      11.236   4.433  94.133  1.00  0.00     0.000 HD
ENDBRANCH  33  35
ENDBRANCH  31  33
ENDBRANCH  26  31
ENDBRANCH  24  26
ENDBRANCH  19  22
ENDBRANCH  15  16
ENDBRANCH  11  14
ENDBRANCH   7   8
ENDBRANCH   2   7
TORSDOF 11
ENDMDL
MODEL 3
REMARK VINA RESULT:      -4.3      1.695      2.393
REMARK  11 active torsions:
REMARK  status: ('A' for Active; 'I' for Inactive)
REMARK    1  A    between atoms: O_2  and  C_18 
REMARK    2  A    between atoms: O_5  and  P_8 
REMARK    3  A    between atoms: N_6  and  C_11 
REMARK    4  A    between atoms: N_7  and  C_15 
REMARK       I    between atoms: N_7  and  C_24 
REMARK    5  A    between atoms: P_8  and  C_23 
REMARK    6  A    between atoms: C_11  and  C_14 
REMARK    7  A    between atoms: C_15  and  C_18 
REMARK    8  A    between atoms: C_15  and  C_23 
REMARK    9  A    between atoms: C_21  and  C_26 
REMARK   10  A    between atoms: C_24  and  C_25 
REMARK   11  A    between atoms: C_29  and  C_32 
ROOT
HETATM    1  O   UNL     1      15.264   4.284  93.243  1.00  0.00     0.000 OA
HETATM    2  N   UNL     1      13.337   2.457  92.218  1.00  0.00     0.000 N 
HETATM    3  C   UNL     1      14.287   3.147  91.334  1.00  0.00     0.000 C 
HETATM    4  C   UNL     1      13.061   3.281  93.403  1.00  0.00     0.000 C 
HETATM    5  C   UNL     1      15.564   3.475  92.104  1.00  0.00     0.000 C 
HETATM    6  C   UNL     1      14.366   3.606  94.123  1.00  0.00     0.000 C 
ENDROOT
BRANCH   2   7
HETATM    7  C   UNL     1      12.101   2.142  91.504  1.00  0.00     0.000 C 
BRANCH   7   8
HETATM    8  C   UNL     1      11.172   3.306  91.437  1.00  0.00     0.000 A 
HETATM    9  C   UNL     1      10.184   3.465  92.409  1.00  0.00     0.000 A 
HETATM   10  C   UNL     1       9.312   4.552  92.346  1.00  0.00     0.000 A 
HETATM   11  C   UNL     1       9.431   5.480  91.312  1.00  0.00     0.000 A 
HETATM   12  C   UNL     1      10.417   5.322  90.341  1.00  0.00     0.000 A 
HETATM   13  C   UNL     1      11.288   4.235  90.403  1.00  0.00     0.000 A 
BRANCH  11  14
HETATM   14  C   UNL     1       8.538   6.597  91.249  1.00  0.00     0.000 C 
HETATM   15  C   UNL     1       7.789   7.535  91.195  1.00  0.00     0.000 C 
BRANCH  15  16
HETATM   16  C   UNL     1       6.896   8.651  91.131  1.00  0.00     0.000 A 
HETATM   17  C   UNL     1       5.767   8.687  91.949  1.00  0.00     0.000 A 
HETATM   18  C   UNL     1       4.899   9.777  91.889  1.00  0.00     0.000 A 
HETATM   19  C   UNL     1       5.178  10.804  91.012  1.00  0.00     0.000 A 
HETATM   20  C   UNL     1       6.287  10.792  90.193  1.00  0.00     0.000 A 
HETATM   21  C   UNL     1       7.157   9.702  90.252  1.00  0.00     0.000 A 
BRANCH  19  22
HETATM   22  C   UNL     1       4.251  11.964  90.947  1.00  0.00     0.000 C 
HETATM   23  O   UNL     1       3.135  11.812  90.456  1.00  0.00     0.000 OA
HETATM   24  N   UNL     1       4.726  13.153  91.482  1.00  0.00     0.000 N 
HETATM   25  HN  UNL     1       5.651  13.197  91.893  1.00  0.00     0.000 HD
BRANCH  24  26
HETATM   26  C   UNL     1       3.937  14.358  91.514  1.00  0.00     0.000 C 
BRANCH  26  27
HETATM   27  C   UNL     1       3.671  14.931  90.117  1.00  0.00     0.000 C 
HETATM   28  C   UNL     1       4.956  15.248  89.361  1.00  0.00     0.000 C 
BRANCH  27  29
HETATM   29  O   UNL     1       2.904  13.998  89.357  1.00  0.00     0.000 OA
HETATM   30  H   UNL     1       1.963  14.213  89.469  1.00  0.00     0.000 HD
ENDBRANCH  27  29
ENDBRANCH  26  27
BRANCH  26  31
HETATM   31  C   UNL     1       2.635  14.043  92.242  1.00  0.00     0.000 C 
HETATM   32  O   UNL     1       1.561  13.899  91.661  1.00  0.00     0.000 OA
BRANCH  31  33
HETATM   33  P   UNL     1       2.803  13.981  93.604  1.00  0.00     0.000 P 
HETATM   34  H   UNL     1       2.070  15.005  94.169  1.00  0.00     0.000 HD
BRANCH  33  35
HETATM   35  O   UNL     1       4.124  14.095  94.062  1.00  0.00     0.000 OA
HETATM   36  H   UNL     1       4.594  14.180  93.215  1.00  0.00     0.000 HD
ENDBRANCH  33  35
ENDBRANCH  31  33
ENDBRANCH  26  31
ENDBRANCH  24  26
ENDBRANCH  19  22
ENDBRANCH  15  16
ENDBRANCH  11  14
ENDBRANCH   7   8
ENDBRANCH   2   7
TORSDOF 11
ENDMDL
MODEL 4
REMARK VINA RESULT:      -4.3      3.173     12.759
REMARK  11 active torsions:
REMARK  status: ('A' for Active; 'I' for Inactive)
REMARK    1  A    between atoms: O_2  and  C_18 
REMARK    2  A    between atoms: O_5  and  P_8 
REMARK    3  A    between atoms: N_6  and  C_11 
REMARK    4  A    between atoms: N_7  and  C_15 
REMARK       I    between atoms: N_7  and  C_24 
REMARK    5  A    between atoms: P_8  and  C_23 
REMARK    6  A    between atoms: C_11  and  C_14 
REMARK    7  A    between atoms: C_15  and  C_18 
REMARK    8  A    between atoms: C_15  and  C_23 
REMARK    9  A    between atoms: C_21  and  C_26 
REMARK   10  A    between atoms: C_24  and  C_25 
REMARK   11  A    between atoms: C_29  and  C_32 
ROOT
HETATM    1  O   UNL     1       3.804  15.617  90.535  1.00  0.00     0.000 OA
HETATM    2  N   UNL     1       4.493  12.925  89.917  1.00  0.00     0.000 N 
HETATM    3  C   UNL     1       4.749  14.020  88.971  1.00  0.00     0.000 C 
HETATM    4  C   UNL     1       3.332  13.248  90.758  1.00  0.00     0.000 C 
HETATM    5  C   UNL     1       4.951  15.326  89.735  1.00  0.00     0.000 C 
HETATM    6  C   UNL     1       3.566  14.571  91.479  1.00  0.00     0.000 C 
ENDROOT
BRANCH   2   7
HETATM    7  C   UNL     1       4.285  11.665  89.205  1.00  0.00     0.000 C 
BRANCH   7   8
HETATM    8  C   UNL     1       5.310  10.640  89.555  1.00  0.00     0.000 A 
HETATM    9  C   UNL     1       4.914   9.345  89.889  1.00  0.00     0.000 A 
HETATM   10  C   UNL     1       5.872   8.386  90.218  1.00  0.00     0.000 A 
HETATM   11  C   UNL     1       7.226   8.723  90.210  1.00  0.00     0.000 A 
HETATM   12  C   UNL     1       7.622  10.016  89.876  1.00  0.00     0.000 A 
HETATM   13  C   UNL     1       6.664  10.975  89.548  1.00  0.00     0.000 A 
BRANCH  11  14
HETATM   14  C   UNL     1       8.208   7.738  90.546  1.00  0.00     0.000 C 
HETATM   15  C   UNL     1       9.034   6.911  90.827  1.00  0.00     0.000 C 
BRANCH  15  16
HETATM   16  C   UNL     1      10.017   5.928  91.161  1.00  0.00     0.000 A 
HETATM   17  C   UNL     1      10.185   5.535  92.490  1.00  0.00     0.000 A 
HETATM   18  C   UNL     1      11.142   4.574  92.815  1.00  0.00     0.000 A 
HETATM   19  C   UNL     1      11.908   4.027  91.807  1.00  0.00     0.000 A 
HETATM   20  C   UNL     1      11.761   4.398  90.487  1.00  0.00     0.000 A 
HETATM   21  C   UNL     1      10.804   5.360  90.160  1.00  0.00     0.000 A 
BRANCH  19  22
HETATM   22  C   UNL     1      12.928   3.004  92.155  1.00  0.00     0.000 C 
HETATM   23  O   UNL     1      12.644   1.814  92.050  1.00  0.00     0.000 OA
HETATM   24  N   UNL     1      14.164   3.491  92.558  1.00  0.00     0.000 N 
HETATM   25  HN  UNL     1      14.334   4.489  92.597  1.00  0.00     0.000 HD
BRANCH  24  26
HETATM   26  C   UNL     1      15.262   2.626  92.905  1.00  0.00     0.000 C 
BRANCH  26  27
HETATM   27  C   UNL     1      15.938   2.003  91.677  1.00  0.00     0.000 C 
HETATM   28  C   UNL     1      15.678   2.797  90.402  1.00  0.00     0.000 C 
BRANCH  27  29
HETATM   29  O   UNL     1      17.346   1.924  91.895  1.00  0.00     0.000 OA
HETATM   30  H   UNL     1      17.734   1.380  91.189  1.00  0.00     0.000 HD
ENDBRANCH  27  29
ENDBRANCH  26  27
BRANCH  26  31
HETATM   31  C   UNL     1      16.254   3.440  93.730  1.00  0.00     0.000 C 
HETATM   32  O   UNL     1      17.375   3.030  94.026  1.00  0.00     0.000 OA
BRANCH  31  33
HETATM   33  P   UNL     1      15.733   4.649  94.124  1.00  0.00     0.000 P 
HETATM   34  H   UNL     1      14.379   4.633  93.855  1.00  0.00     0.000 HD
BRANCH  33  35
HETATM   35  O   UNL     1      16.281   5.781  93.505  1.00  0.00     0.000 OA
HETATM   36  H   UNL     1      16.609   5.387  92.679  1.00  0.00     0.000 HD
ENDBRANCH  33  35
ENDBRANCH  31  33
ENDBRANCH  26  31
ENDBRANCH  24  26
ENDBRANCH  19  22
ENDBRANCH  15  16
ENDBRANCH  11  14
ENDBRANCH   7   8
ENDBRANCH   2   7
TORSDOF 11
ENDMDL
MODEL 5
REMARK VINA RESULT:      -3.9      3.878     12.621
REMARK  11 active torsions:
REMARK  status: ('A' for Active; 'I' for Inactive)
REMARK    1  A    between atoms: O_2  and  C_18 
REMARK    2  A    between atoms: O_5  and  P_8 
REMARK    3  A    between atoms: N_6  and  C_11 
REMARK    4  A    between atoms: N_7  and  C_15 
REMARK       I    between atoms: N_7  and  C_24 
REMARK    5  A    between atoms: P_8  and  C_23 
REMARK    6  A    between atoms: C_11  and  C_14 
REMARK    7  A    between atoms: C_15  and  C_18 
REMARK    8  A    between atoms: C_15  and  C_23 
REMARK    9  A    between atoms: C_21  and  C_26 
REMARK   10  A    between atoms: C_24  and  C_25 
REMARK   11  A    between atoms: C_29  and  C_32 
ROOT
HETATM    1  O   UNL     1       2.871  14.321  89.841  1.00  0.00     0.000 OA
HETATM    2  N   UNL     1       2.774  14.067  92.674  1.00  0.00     0.000 N 
HETATM    3  C   UNL     1       4.038  14.319  91.969  1.00  0.00     0.000 C 
HETATM    4  C   UNL     1       1.851  13.325  91.804  1.00  0.00     0.000 C 
HETATM    5  C   UNL     1       3.763  15.070  90.668  1.00  0.00     0.000 C 
HETATM    6  C   UNL     1       1.628  14.098  90.508  1.00  0.00     0.000 C 
ENDROOT
BRANCH   2   7
HETATM    7  C   UNL     1       3.013  13.338  93.919  1.00  0.00     0.000 C 
BRANCH   7   8
HETATM    8  C   UNL     1       4.003  12.236  93.752  1.00  0.00     0.000 A 
HETATM    9  C   UNL     1       5.353  12.466  94.018  1.00  0.00     0.000 A 
HETATM   10  C   UNL     1       6.280  11.436  93.859  1.00  0.00     0.000 A 
HETATM   11  C   UNL     1       5.856  10.177  93.436  1.00  0.00     0.000 A 
HETATM   12  C   UNL     1       4.508   9.946  93.170  1.00  0.00     0.000 A 
HETATM   13  C   UNL     1       3.581  10.976  93.328  1.00  0.00     0.000 A 
BRANCH  11  14
HETATM   14  C   UNL     1       6.807   9.119  93.276  1.00  0.00     0.000 C 
HETATM   15  C   UNL     1       7.606   8.232  93.140  1.00  0.00     0.000 C 
BRANCH  15  16
HETATM   16  C   UNL     1       8.557   7.176  92.980  1.00  0.00     0.000 A 
HETATM   17  C   UNL     1       9.192   6.635  94.098  1.00  0.00     0.000 A 
HETATM   18  C   UNL     1      10.118   5.603  93.941  1.00  0.00     0.000 A 
HETATM   19  C   UNL     1      10.387   5.136  92.672  1.00  0.00     0.000 A 
HETATM   20  C   UNL     1       9.773   5.654  91.551  1.00  0.00     0.000 A 
HETATM   21  C   UNL     1       8.847   6.686  91.706  1.00  0.00     0.000 A 
BRANCH  19  22
HETATM   22  C   UNL     1      11.374   4.038  92.506  1.00  0.00     0.000 C 
HETATM   23  O   UNL     1      10.972   2.890  92.332  1.00  0.00     0.000 OA
HETATM   24  N   UNL     1      12.710   4.412  92.536  1.00  0.00     0.000 N 
HETATM   25  HN  UNL     1      12.968   5.385  92.659  1.00  0.00     0.000 HD
BRANCH  24  26
HETATM   26  C   UNL     1      13.785   3.468  92.365  1.00  0.00     0.000 C 
BRANCH  26  27
HETATM   27  C   UNL     1      14.480   3.599  91.004  1.00  0.00     0.000 C 
HETATM   28  C   UNL     1      13.498   3.550  89.839  1.00  0.00     0.000 C 
BRANCH  27  29
HETATM   29  O   UNL     1      15.198   4.832  90.953  1.00  0.00     0.000 OA
HETATM   30  H   UNL     1      14.570   5.542  90.741  1.00  0.00     0.000 HD
ENDBRANCH  27  29
ENDBRANCH  26  27
BRANCH  26  31
HETATM   31  C   UNL     1      14.769   3.669  93.513  1.00  0.00     0.000 C 
HETATM   32  O   UNL     1      15.227   4.769  93.817  1.00  0.00     0.000 OA
BRANCH  31  33
HETATM   33  P   UNL     1      15.103   2.484  94.124  1.00  0.00     0.000 P 
HETATM   34  H   UNL     1      16.421   2.210  93.823  1.00  0.00     0.000 HD
BRANCH  33  35
HETATM   35  O   UNL     1      14.336   1.370  93.755  1.00  0.00     0.000 OA
HETATM   36  H   UNL     1      13.589   1.460  94.371  1.00  0.00     0.000 HD
ENDBRANCH  33  35
ENDBRANCH  31  33
ENDBRANCH  26  31
ENDBRANCH  24  26
ENDBRANCH  19  22
ENDBRANCH  15  16
ENDBRANCH  11  14
ENDBRANCH   7   8
ENDBRANCH   2   7
TORSDOF 11
ENDMDL
MODEL 6
REMARK VINA RESULT:      -3.8      3.386     12.540
REMARK  11 active torsions:
REMARK  status: ('A' for Active; 'I' for Inactive)
REMARK    1  A    between atoms: O_2  and  C_18 
REMARK    2  A    between atoms: O_5  and  P_8 
REMARK    3  A    between atoms: N_6  and  C_11 
REMARK    4  A    between atoms: N_7  and  C_15 
REMARK       I    between atoms: N_7  and  C_24 
REMARK    5  A    between atoms: P_8  and  C_23 
REMARK    6  A    between atoms: C_11  and  C_14 
REMARK    7  A    between atoms: C_15  and  C_18 
REMARK    8  A    between atoms: C_15  and  C_23 
REMARK    9  A    between atoms: C_21  and  C_26 
REMARK   10  A    between atoms: C_24  and  C_25 
REMARK   11  A    between atoms: C_29  and  C_32 
ROOT
HETATM    1  O   UNL     1       5.030  14.290  89.234  1.00  0.00     0.000 OA
HETATM    2  N   UNL     1       3.594  13.213  91.443  1.00  0.00     0.000 N 
HETATM    3  C   UNL     1       4.637  14.232  91.628  1.00  0.00     0.000 C 
HETATM    4  C   UNL     1       3.883  12.408  90.248  1.00  0.00     0.000 C 
HETATM    5  C   UNL     1       4.741  15.099  90.376  1.00  0.00     0.000 C 
HETATM    6  C   UNL     1       4.005  13.317  89.029  1.00  0.00     0.000 C 
ENDROOT
BRANCH   2   7
HETATM    7  C   UNL     1       3.485  12.363  92.628  1.00  0.00     0.000 C 
BRANCH   7   8
HETATM    8  C   UNL     1       4.524  11.294  92.658  1.00  0.00     0.000 A 
HETATM    9  C   UNL     1       5.699  11.486  93.386  1.00  0.00     0.000 A 
HETATM   10  C   UNL     1       6.673  10.487  93.414  1.00  0.00     0.000 A 
HETATM   11  C   UNL     1       6.470   9.298  92.715  1.00  0.00     0.000 A 
HETATM   12  C   UNL     1       5.297   9.106  91.988  1.00  0.00     0.000 A 
HETATM   13  C   UNL     1       4.323  10.104  91.959  1.00  0.00     0.000 A 
BRANCH  11  14
HETATM   14  C   UNL     1       7.468   8.273  92.745  1.00  0.00     0.000 C 
HETATM   15  C   UNL     1       8.306   7.411  92.769  1.00  0.00     0.000 C 
BRANCH  15  16
HETATM   16  C   UNL     1       9.303   6.387  92.798  1.00  0.00     0.000 A 
HETATM   17  C   UNL     1       9.758   5.893  94.021  1.00  0.00     0.000 A 
HETATM   18  C   UNL     1      10.729   4.892  94.049  1.00  0.00     0.000 A 
HETATM   19  C   UNL     1      11.223   4.408  92.855  1.00  0.00     0.000 A 
HETATM   20  C   UNL     1      10.790   4.881  91.634  1.00  0.00     0.000 A 
HETATM   21  C   UNL     1       9.819   5.882  91.605  1.00  0.00     0.000 A 
BRANCH  19  22
HETATM   22  C   UNL     1      12.259   3.343  92.885  1.00  0.00     0.000 C 
HETATM   23  O   UNL     1      11.926   2.177  92.686  1.00  0.00     0.000 OA
HETATM   24  N   UNL     1      13.560   3.767  93.119  1.00  0.00     0.000 N 
HETATM   25  HN  UNL     1      13.763   4.751  93.250  1.00  0.00     0.000 HD
BRANCH  24  26
HETATM   26  C   UNL     1      14.677   2.858  93.154  1.00  0.00     0.000 C 
BRANCH  26  27
HETATM   27  C   UNL     1      15.052   2.324  91.766  1.00  0.00     0.000 C 
HETATM   28  C   UNL     1      14.512   3.198  90.639  1.00  0.00     0.000 C 
BRANCH  27  29
HETATM   29  O   UNL     1      16.472   2.246  91.652  1.00  0.00     0.000 OA
HETATM   30  H   UNL     1      16.690   1.959  90.749  1.00  0.00     0.000 HD
ENDBRANCH  27  29
ENDBRANCH  26  27
BRANCH  26  31
HETATM   31  C   UNL     1      15.849   3.586  93.803  1.00  0.00     0.000 C 
HETATM   32  O   UNL     1      16.894   3.021  94.124  1.00  0.00     0.000 OA
BRANCH  31  33
HETATM   33  P   UNL     1      15.581   4.916  94.016  1.00  0.00     0.000 P 
HETATM   34  H   UNL     1      14.507   5.263  93.222  1.00  0.00     0.000 HD
BRANCH  33  35
HETATM   35  O   UNL     1      16.629   5.803  93.732  1.00  0.00     0.000 OA
HETATM   36  H   UNL     1      17.334   5.422  94.283  1.00  0.00     0.000 HD
ENDBRANCH  33  35
ENDBRANCH  31  33
ENDBRANCH  26  31
ENDBRANCH  24  26
ENDBRANCH  19  22
ENDBRANCH  15  16
ENDBRANCH  11  14
ENDBRANCH   7   8
ENDBRANCH   2   7
TORSDOF 11
ENDMDL
MODEL 7
REMARK VINA RESULT:      -3.8      3.445     12.608
REMARK  11 active torsions:
REMARK  status: ('A' for Active; 'I' for Inactive)
REMARK    1  A    between atoms: O_2  and  C_18 
REMARK    2  A    between atoms: O_5  and  P_8 
REMARK    3  A    between atoms: N_6  and  C_11 
REMARK    4  A    between atoms: N_7  and  C_15 
REMARK       I    between atoms: N_7  and  C_24 
REMARK    5  A    between atoms: P_8  and  C_23 
REMARK    6  A    between atoms: C_11  and  C_14 
REMARK    7  A    between atoms: C_15  and  C_18 
REMARK    8  A    between atoms: C_15  and  C_23 
REMARK    9  A    between atoms: C_21  and  C_26 
REMARK   10  A    between atoms: C_24  and  C_25 
REMARK   11  A    between atoms: C_29  and  C_32 
ROOT
HETATM    1  O   UNL     1       4.282  12.551  88.272  1.00  0.00     0.000 OA
HETATM    2  N   UNL     1       3.117  11.532  90.660  1.00  0.00     0.000 N 
HETATM    3  C   UNL     1       3.857  12.801  90.648  1.00  0.00     0.000 C 
HETATM    4  C   UNL     1       3.633  10.638  89.614  1.00  0.00     0.000 C 
HETATM    5  C   UNL     1       3.765  13.440  89.264  1.00  0.00     0.000 C 
HETATM    6  C   UNL     1       3.548  11.326  88.256  1.00  0.00     0.000 C 
ENDROOT
BRANCH   2   7
HETATM    7  C   UNL     1       3.200  10.897  91.974  1.00  0.00     0.000 C 
BRANCH   7   8
HETATM    8  C   UNL     1       4.338   9.938  92.071  1.00  0.00     0.000 A 
HETATM    9  C   UNL     1       5.647  10.415  92.144  1.00  0.00     0.000 A 
HETATM   10  C   UNL     1       6.712   9.518  92.232  1.00  0.00     0.000 A 
HETATM   11  C   UNL     1       6.467   8.146  92.249  1.00  0.00     0.000 A 
HETATM   12  C   UNL     1       5.160   7.668  92.176  1.00  0.00     0.000 A 
HETATM   13  C   UNL     1       4.095   8.564  92.087  1.00  0.00     0.000 A 
BRANCH  11  14
HETATM   14  C   UNL     1       7.559   7.226  92.341  1.00  0.00     0.000 C 
HETATM   15  C   UNL     1       8.477   6.453  92.418  1.00  0.00     0.000 C 
BRANCH  15  16
HETATM   16  C   UNL     1       9.568   5.534  92.510  1.00  0.00     0.000 A 
HETATM   17  C   UNL     1       9.764   4.583  91.508  1.00  0.00     0.000 A 
HETATM   18  C   UNL     1      10.831   3.689  91.596  1.00  0.00     0.000 A 
HETATM   19  C   UNL     1      11.677   3.766  92.682  1.00  0.00     0.000 A 
HETATM   20  C   UNL     1      11.505   4.696  93.685  1.00  0.00     0.000 A 
HETATM   21  C   UNL     1      10.438   5.591  93.598  1.00  0.00     0.000 A 
BRANCH  19  22
HETATM   22  C   UNL     1      12.812   2.812  92.776  1.00  0.00     0.000 C 
HETATM   23  O   UNL     1      12.606   1.614  92.593  1.00  0.00     0.000 OA
HETATM   24  N   UNL     1      14.054   3.369  93.048  1.00  0.00     0.000 N 
HETATM   25  HN  UNL     1      14.153   4.371  93.163  1.00  0.00     0.000 HD
BRANCH  24  26
HETATM   26  C   UNL     1      15.254   2.578  93.146  1.00  0.00     0.000 C 
BRANCH  26  27
HETATM   27  C   UNL     1      15.725   2.043  91.788  1.00  0.00     0.000 C 
HETATM   28  C   UNL     1      15.347   2.965  90.634  1.00  0.00     0.000 C 
BRANCH  27  29
HETATM   29  O   UNL     1      17.143   1.880  91.805  1.00  0.00     0.000 OA
HETATM   30  H   UNL     1      17.545   2.728  92.057  1.00  0.00     0.000 HD
ENDBRANCH  27  29
ENDBRANCH  26  27
BRANCH  26  31
HETATM   31  C   UNL     1      16.327   3.438  93.806  1.00  0.00     0.000 C 
HETATM   32  O   UNL     1      17.460   3.027  94.048  1.00  0.00     0.000 OA
BRANCH  31  33
HETATM   33  P   UNL     1      15.864   4.692  94.124  1.00  0.00     0.000 P 
HETATM   34  H   UNL     1      14.486   4.665  94.051  1.00  0.00     0.000 HD
BRANCH  33  35
HETATM   35  O   UNL     1      16.316   5.736  93.304  1.00  0.00     0.000 OA
HETATM   36  H   UNL     1      15.469   6.147  93.061  1.00  0.00     0.000 HD
ENDBRANCH  33  35
ENDBRANCH  31  33
ENDBRANCH  26  31
ENDBRANCH  24  26
ENDBRANCH  19  22
ENDBRANCH  15  16
ENDBRANCH  11  14
ENDBRANCH   7   8
ENDBRANCH   2   7
TORSDOF 11
ENDMDL
MODEL 8
REMARK VINA RESULT:      -3.8      2.181      2.896
REMARK  11 active torsions:
REMARK  status: ('A' for Active; 'I' for Inactive)
REMARK    1  A    between atoms: O_2  and  C_18 
REMARK    2  A    between atoms: O_5  and  P_8 
REMARK    3  A    between atoms: N_6  and  C_11 
REMARK    4  A    between atoms: N_7  and  C_15 
REMARK       I    between atoms: N_7  and  C_24 
REMARK    5  A    between atoms: P_8  and  C_23 
REMARK    6  A    between atoms: C_11  and  C_14 
REMARK    7  A    between atoms: C_15  and  C_18 
REMARK    8  A    between atoms: C_15  and  C_23 
REMARK    9  A    between atoms: C_21  and  C_26 
REMARK   10  A    between atoms: C_24  and  C_25 
REMARK   11  A    between atoms: C_29  and  C_32 
ROOT
HETATM    1  O   UNL     1      16.038   2.873  91.731  1.00  0.00     0.000 OA
HETATM    2  N   UNL     1      13.396   3.066  92.773  1.00  0.00     0.000 N 
HETATM    3  C   UNL     1      14.368   2.108  93.317  1.00  0.00     0.000 C 
HETATM    4  C   UNL     1      13.684   3.326  91.356  1.00  0.00     0.000 C 
HETATM    5  C   UNL     1      15.785   2.639  93.118  1.00  0.00     0.000 C 
HETATM    6  C   UNL     1      15.117   3.827  91.202  1.00  0.00     0.000 C 
ENDROOT
BRANCH   2   7
HETATM    7  C   UNL     1      12.031   2.572  92.944  1.00  0.00     0.000 C 
BRANCH   7   8
HETATM    8  C   UNL     1      11.028   3.675  92.972  1.00  0.00     0.000 A 
HETATM    9  C   UNL     1      10.004   3.709  92.025  1.00  0.00     0.000 A 
HETATM   10  C   UNL     1       9.066   4.741  92.049  1.00  0.00     0.000 A 
HETATM   11  C   UNL     1       9.151   5.737  93.021  1.00  0.00     0.000 A 
HETATM   12  C   UNL     1      10.173   5.703  93.968  1.00  0.00     0.000 A 
HETATM   13  C   UNL     1      11.111   4.672  93.944  1.00  0.00     0.000 A 
BRANCH  11  14
HETATM   14  C   UNL     1       8.187   6.794  93.047  1.00  0.00     0.000 C 
HETATM   15  C   UNL     1       7.377   7.682  93.069  1.00  0.00     0.000 C 
BRANCH  15  16
HETATM   16  C   UNL     1       6.414   8.739  93.096  1.00  0.00     0.000 A 
HETATM   17  C   UNL     1       6.708   9.932  93.757  1.00  0.00     0.000 A 
HETATM   18  C   UNL     1       5.769  10.963  93.781  1.00  0.00     0.000 A 
HETATM   19  C   UNL     1       4.560  10.779  93.143  1.00  0.00     0.000 A 
HETATM   20  C   UNL     1       4.246   9.609  92.484  1.00  0.00     0.000 A 
HETATM   21  C   UNL     1       5.184   8.577  92.460  1.00  0.00     0.000 A 
BRANCH  19  22
HETATM   22  C   UNL     1       3.560  11.878  93.171  1.00  0.00     0.000 C 
HETATM   23  O   UNL     1       2.785  11.960  94.121  1.00  0.00     0.000 OA
HETATM   24  N   UNL     1       3.598  12.762  92.101  1.00  0.00     0.000 N 
HETATM   25  HN  UNL     1       4.283  12.645  91.364  1.00  0.00     0.000 HD
BRANCH  24  26
HETATM   26  C   UNL     1       2.710  13.891  91.996  1.00  0.00     0.000 C 
BRANCH  26  27
HETATM   27  C   UNL     1       3.257  15.143  92.693  1.00  0.00     0.000 C 
HETATM   28  C   UNL     1       2.380  15.595  93.856  1.00  0.00     0.000 C 
BRANCH  27  29
HETATM   29  O   UNL     1       4.573  14.882  93.179  1.00  0.00     0.000 OA
HETATM   30  H   UNL     1       4.649  15.261  94.072  1.00  0.00     0.000 HD
ENDBRANCH  27  29
ENDBRANCH  26  27
BRANCH  26  31
HETATM   31  C   UNL     1       2.455  14.148  90.515  1.00  0.00     0.000 C 
HETATM   32  O   UNL     1       1.382  14.564  90.082  1.00  0.00     0.000 OA
BRANCH  31  33
HETATM   33  P   UNL     1       3.541  13.824  89.738  1.00  0.00     0.000 P 
HETATM   34  H   UNL     1       3.631  14.758  88.726  1.00  0.00     0.000 HD
BRANCH  33  35
HETATM   35  O   UNL     1       3.511  12.553  89.147  1.00  0.00     0.000 OA
HETATM   36  H   UNL     1       2.872  12.105  89.728  1.00  0.00     0.000 HD
ENDBRANCH  33  35
ENDBRANCH  31  33
ENDBRANCH  26  31
ENDBRANCH  24  26
ENDBRANCH  19  22
ENDBRANCH  15  16
ENDBRANCH  11  14
ENDBRANCH   7   8
ENDBRANCH   2   7
TORSDOF 11
ENDMDL
