MODEL 1
REMARK VINA RESULT:      -7.6      0.000      0.000
REMARK  9 active torsions:
REMARK  status: ('A' for Active; 'I' for Inactive)
REMARK    1  A    between atoms: N_3  and  C_6 
REMARK    2  A    between atoms: C_6  and  C_9 
REMARK    3  A    between atoms: C_14  and  C_17 
REMARK       I    between atoms: N_26  and  C_15 
REMARK    4  A    between atoms: C_15  and  C_16 
REMARK    5  A    between atoms: C_20  and  C_23 
REMARK    6  A    between atoms: OG1_24  and  CB_28 
REMARK    7  A    between atoms: N_26  and  CA_27 
REMARK    8  A    between atoms: CA_27  and  CB_28 
REMARK    9  A    between atoms: CA_27  and  C_30 
ROOT
HETATM    1  O   UNK A   0       1.963   8.080  87.823  1.00  0.00    -0.388 OA
HETATM    2  N   UNK A   0       4.750   7.525  87.668  1.00  0.00     0.096 N 
HETATM    3  C   UNK A   0       4.246   8.901  87.771  1.00  0.00     0.299 C 
HETATM    4  C   UNK A   0       3.758   6.675  86.995  1.00  0.00     0.299 C 
HETATM    5  C   UNK A   0       2.907   8.908  88.505  1.00  0.00     0.198 C 
HETATM    6  C   UNK A   0       2.431   6.734  87.746  1.00  0.00     0.198 C 
ENDROOT
BRANCH   2   7
HETATM    7  C   UNK A   0       6.028   7.493  86.959  1.00  0.00     0.311 C 
BRANCH   7   8
HETATM    8  C   UNK A   0       7.118   6.893  87.779  1.00  0.00    -0.030 A 
HETATM    9  C   UNK A   0       8.356   6.616  87.197  1.00  0.00     0.010 A 
HETATM   10  C   UNK A   0       9.376   6.052  87.963  1.00  0.00     0.021 A 
HETATM   11  C   UNK A   0       9.158   5.767  89.311  1.00  0.00     0.018 A 
HETATM   12  C   UNK A   0       7.923   6.044  89.893  1.00  0.00     0.021 A 
HETATM   13  C   UNK A   0       6.902   6.607  89.127  1.00  0.00     0.010 A 
BRANCH  11  14
HETATM   14  C   UNK A   0      10.206   5.191  90.097  1.00  0.00    -0.061 C 
HETATM   15  C   UNK A   0      11.085   4.706  90.758  1.00  0.00    -0.061 C 
BRANCH  15  16
HETATM   16  C   UNK A   0      12.131   4.129  91.544  1.00  0.00     0.018 A 
HETATM   17  C   UNK A   0      11.886   3.759  92.866  1.00  0.00     0.022 A 
HETATM   18  C   UNK A   0      12.906   3.193  93.631  1.00  0.00     0.018 A 
HETATM   19  C   UNK A   0      14.147   3.011  93.057  1.00  0.00     0.032 A 
HETATM   20  C   UNK A   0      14.415   3.369  91.753  1.00  0.00     0.018 A 
HETATM   21  C   UNK A   0      13.395   3.935  90.987  1.00  0.00     0.022 A 
BRANCH  19  22
HETATM   22  C   UNK A   0      15.234   2.411  93.874  1.00  0.00     0.252 C 
HETATM   23  O   UNK A   0      16.388   2.801  93.716  1.00  0.00    -0.268 OA
ENDBRANCH  19  22
ENDBRANCH  15  16
ENDBRANCH  11  14
ENDBRANCH   7   8
ENDBRANCH   2   7
TORSDOF 9
ENDMDL
MODEL 2
REMARK VINA RESULT:      -7.5      0.209      1.440
REMARK  9 active torsions:
REMARK  status: ('A' for Active; 'I' for Inactive)
REMARK    1  A    between atoms: N_3  and  C_6 
REMARK    2  A    between atoms: C_6  and  C_9 
REMARK    3  A    between atoms: C_14  and  C_17 
REMARK       I    between atoms: N_26  and  C_15 
REMARK    4  A    between atoms: C_15  and  C_16 
REMARK    5  A    between atoms: C_20  and  C_23 
REMARK    6  A    between atoms: OG1_24  and  CB_28 
REMARK    7  A    between atoms: N_26  and  CA_27 
REMARK    8  A    between atoms: CA_27  and  CB_28 
REMARK    9  A    between atoms: CA_27  and  C_30 
ROOT
HETATM    1  O   UNK A   0       1.844   8.293  87.866  1.00  0.00    -0.388 OA
HETATM    2  N   UNK A   0       4.612   7.665  87.645  1.00  0.00     0.096 N 
HETATM    3  C   UNK A   0       4.146   9.055  87.753  1.00  0.00     0.299 C 
HETATM    4  C   UNK A   0       3.582   6.838  87.001  1.00  0.00     0.299 C 
HETATM    5  C   UNK A   0       2.826   9.099  88.520  1.00  0.00     0.198 C 
HETATM    6  C   UNK A   0       2.276   6.934  87.784  1.00  0.00     0.198 C 
ENDROOT
BRANCH   2   7
HETATM    7  C   UNK A   0       5.870   7.598  86.904  1.00  0.00     0.311 C 
BRANCH   7   8
HETATM    8  C   UNK A   0       6.970   6.991  87.707  1.00  0.00    -0.030 A 
HETATM    9  C   UNK A   0       6.757   6.668  89.048  1.00  0.00     0.010 A 
HETATM   10  C   UNK A   0       7.786   6.102  89.801  1.00  0.00     0.021 A 
HETATM   11  C   UNK A   0       9.026   5.858  89.212  1.00  0.00     0.018 A 
HETATM   12  C   UNK A   0       9.240   6.180  87.873  1.00  0.00     0.021 A 
HETATM   13  C   UNK A   0       8.212   6.746  87.120  1.00  0.00     0.010 A 
BRANCH  11  14
HETATM   14  C   UNK A   0      10.081   5.276  89.984  1.00  0.00    -0.061 C 
HETATM   15  C   UNK A   0      10.967   4.787  90.632  1.00  0.00    -0.061 C 
BRANCH  15  16
HETATM   16  C   UNK A   0      12.021   4.206  91.404  1.00  0.00     0.018 A 
HETATM   17  C   UNK A   0      13.286   4.037  90.840  1.00  0.00     0.022 A 
HETATM   18  C   UNK A   0      14.315   3.472  91.594  1.00  0.00     0.018 A 
HETATM   19  C   UNK A   0      14.056   3.091  92.894  1.00  0.00     0.032 A 
HETATM   20  C   UNK A   0      12.815   3.247  93.474  1.00  0.00     0.018 A 
HETATM   21  C   UNK A   0      11.786   3.812  92.721  1.00  0.00     0.022 A 
BRANCH  19  22
HETATM   22  C   UNK A   0      15.152   2.488  93.697  1.00  0.00     0.252 C 
HETATM   23  O   UNK A   0      16.240   3.056  93.749  1.00  0.00    -0.268 OA
ENDBRANCH  19  22
ENDBRANCH  15  16
ENDBRANCH  11  14
ENDBRANCH   7   8
ENDBRANCH   2   7
TORSDOF 9
ENDMDL
MODEL 3
REMARK VINA RESULT:      -7.0      1.428      1.752
REMARK  9 active torsions:
REMARK  status: ('A' for Active; 'I' for Inactive)
REMARK    1  A    between atoms: N_3  and  C_6 
REMARK    2  A    between atoms: C_6  and  C_9 
REMARK    3  A    between atoms: C_14  and  C_17 
REMARK       I    between atoms: N_26  and  C_15 
REMARK    4  A    between atoms: C_15  and  C_16 
REMARK    5  A    between atoms: C_20  and  C_23 
REMARK    6  A    between atoms: OG1_24  and  CB_28 
REMARK    7  A    between atoms: N_26  and  CA_27 
REMARK    8  A    between atoms: CA_27  and  CB_28 
REMARK    9  A    between atoms: CA_27  and  C_30 
ROOT
HETATM    1  O   UNK A   0       4.869  11.137  88.699  1.00  0.00    -0.388 OA
HETATM    2  N   UNK A   0       5.288   8.322  88.681  1.00  0.00     0.096 N 
HETATM    3  C   UNK A   0       6.395   9.262  88.907  1.00  0.00     0.299 C 
HETATM    4  C   UNK A   0       4.257   8.950  87.845  1.00  0.00     0.299 C 
HETATM    5  C   UNK A   0       5.862  10.546  89.538  1.00  0.00     0.198 C 
HETATM    6  C   UNK A   0       3.775  10.241  88.500  1.00  0.00     0.198 C 
ENDROOT
BRANCH   2   7
HETATM    7  C   UNK A   0       5.775   7.087  88.067  1.00  0.00     0.311 C 
BRANCH   7   8
HETATM    8  C   UNK A   0       6.965   6.532  88.773  1.00  0.00    -0.030 A 
HETATM    9  C   UNK A   0       8.213   6.546  88.150  1.00  0.00     0.010 A 
HETATM   10  C   UNK A   0       9.327   6.025  88.808  1.00  0.00     0.021 A 
HETATM   11  C   UNK A   0       9.192   5.493  90.090  1.00  0.00     0.018 A 
HETATM   12  C   UNK A   0       7.946   5.478  90.713  1.00  0.00     0.021 A 
HETATM   13  C   UNK A   0       6.832   5.999  90.055  1.00  0.00     0.010 A 
BRANCH  11  14
HETATM   14  C   UNK A   0      10.335   4.960  90.766  1.00  0.00    -0.061 C 
HETATM   15  C   UNK A   0      11.295   4.512  91.334  1.00  0.00    -0.061 C 
BRANCH  15  16
HETATM   16  C   UNK A   0      12.438   3.981  92.009  1.00  0.00     0.018 A 
HETATM   17  C   UNK A   0      12.374   3.704  93.375  1.00  0.00     0.022 A 
HETATM   18  C   UNK A   0      13.488   3.183  94.033  1.00  0.00     0.018 A 
HETATM   19  C   UNK A   0      14.640   2.949  93.311  1.00  0.00     0.032 A 
HETATM   20  C   UNK A   0      14.728   3.215  91.960  1.00  0.00     0.018 A 
HETATM   21  C   UNK A   0      13.615   3.736  91.302  1.00  0.00     0.022 A 
BRANCH  19  22
HETATM   22  C   UNK A   0      15.827   2.396  94.013  1.00  0.00     0.252 C 
HETATM   23  O   UNK A   0      16.942   2.833  93.741  1.00  0.00    -0.268 OA
ENDBRANCH  19  22
ENDBRANCH  15  16
ENDBRANCH  11  14
ENDBRANCH   7   8
ENDBRANCH   2   7
TORSDOF 9
ENDMDL
MODEL 4
REMARK VINA RESULT:      -6.9      1.512      2.334
REMARK  9 active torsions:
REMARK  status: ('A' for Active; 'I' for Inactive)
REMARK    1  A    between atoms: N_3  and  C_6 
REMARK    2  A    between atoms: C_6  and  C_9 
REMARK    3  A    between atoms: C_14  and  C_17 
REMARK       I    between atoms: N_26  and  C_15 
REMARK    4  A    between atoms: C_15  and  C_16 
REMARK    5  A    between atoms: C_20  and  C_23 
REMARK    6  A    between atoms: OG1_24  and  CB_28 
REMARK    7  A    between atoms: N_26  and  CA_27 
REMARK    8  A    between atoms: CA_27  and  CB_28 
REMARK    9  A    between atoms: CA_27  and  C_30 
ROOT
HETATM    1  O   UNK A   0       3.020  11.294  89.712  1.00  0.00    -0.388 OA
HETATM    2  N   UNK A   0       4.742   9.294  88.644  1.00  0.00     0.096 N 
HETATM    3  C   UNK A   0       3.792  10.024  87.793  1.00  0.00     0.299 C 
HETATM    4  C   UNK A   0       4.226   9.211  90.017  1.00  0.00     0.299 C 
HETATM    5  C   UNK A   0       3.528  11.408  88.381  1.00  0.00     0.198 C 
HETATM    6  C   UNK A   0       3.952  10.613  90.553  1.00  0.00     0.198 C 
ENDROOT
BRANCH   2   7
HETATM    7  C   UNK A   0       5.001   7.961  88.104  1.00  0.00     0.311 C 
BRANCH   7   8
HETATM    8  C   UNK A   0       6.206   7.327  88.711  1.00  0.00    -0.030 A 
HETATM    9  C   UNK A   0       6.067   6.196  89.517  1.00  0.00     0.010 A 
HETATM   10  C   UNK A   0       7.194   5.604  90.087  1.00  0.00     0.021 A 
HETATM   11  C   UNK A   0       8.458   6.141  89.849  1.00  0.00     0.018 A 
HETATM   12  C   UNK A   0       8.598   7.270  89.045  1.00  0.00     0.021 A 
HETATM   13  C   UNK A   0       7.472   7.863  88.475  1.00  0.00     0.010 A 
BRANCH  11  14
HETATM   14  C   UNK A   0       9.614   5.531  90.432  1.00  0.00    -0.061 C 
HETATM   15  C   UNK A   0      10.586   5.019  90.922  1.00  0.00    -0.061 C 
BRANCH  15  16
HETATM   16  C   UNK A   0      11.741   4.411  91.504  1.00  0.00     0.018 A 
HETATM   17  C   UNK A   0      12.913   4.285  90.758  1.00  0.00     0.022 A 
HETATM   18  C   UNK A   0      14.041   3.695  91.327  1.00  0.00     0.018 A 
HETATM   19  C   UNK A   0      13.972   3.244  92.629  1.00  0.00     0.032 A 
HETATM   20  C   UNK A   0      12.826   3.356  93.387  1.00  0.00     0.018 A 
HETATM   21  C   UNK A   0      11.697   3.947  92.819  1.00  0.00     0.022 A 
BRANCH  19  22
HETATM   22  C   UNK A   0      15.174   2.613  93.234  1.00  0.00     0.252 C 
HETATM   23  O   UNK A   0      16.079   3.328  93.656  1.00  0.00    -0.268 OA
ENDBRANCH  19  22
ENDBRANCH  15  16
ENDBRANCH  11  14
ENDBRANCH   7   8
ENDBRANCH   2   7
TORSDOF 9
ENDMDL
MODEL 5
REMARK VINA RESULT:      -6.8      1.587      1.946
REMARK  9 active torsions:
REMARK  status: ('A' for Active; 'I' for Inactive)
REMARK    1  A    between atoms: N_3  and  C_6 
REMARK    2  A    between atoms: C_6  and  C_9 
REMARK    3  A    between atoms: C_14  and  C_17 
REMARK       I    between atoms: N_26  and  C_15 
REMARK    4  A    between atoms: C_15  and  C_16 
REMARK    5  A    between atoms: C_20  and  C_23 
REMARK    6  A    between atoms: OG1_24  and  CB_28 
REMARK    7  A    between atoms: N_26  and  CA_27 
REMARK    8  A    between atoms: CA_27  and  CB_28 
REMARK    9  A    between atoms: CA_27  and  C_30 
ROOT
HETATM    1  O   UNK A   0       2.722  11.173  89.750  1.00  0.00    -0.388 OA
HETATM    2  N   UNK A   0       4.667   9.417  88.638  1.00  0.00     0.096 N 
HETATM    3  C   UNK A   0       3.758  10.195  87.785  1.00  0.00     0.299 C 
HETATM    4  C   UNK A   0       4.028   9.137  89.931  1.00  0.00     0.299 C 
HETATM    5  C   UNK A   0       3.348  11.479  88.502  1.00  0.00     0.198 C 
HETATM    6  C   UNK A   0       3.611  10.444  90.597  1.00  0.00     0.198 C 
ENDROOT
BRANCH   2   7
HETATM    7  C   UNK A   0       5.065   8.176  87.975  1.00  0.00     0.311 C 
BRANCH   7   8
HETATM    8  C   UNK A   0       6.219   7.516  88.649  1.00  0.00    -0.030 A 
HETATM    9  C   UNK A   0       7.480   8.112  88.614  1.00  0.00     0.010 A 
HETATM   10  C   UNK A   0       8.561   7.495  89.243  1.00  0.00     0.021 A 
HETATM   11  C   UNK A   0       8.379   6.283  89.908  1.00  0.00     0.018 A 
HETATM   12  C   UNK A   0       7.121   5.687  89.944  1.00  0.00     0.021 A 
HETATM   13  C   UNK A   0       6.039   6.304  89.315  1.00  0.00     0.010 A 
BRANCH  11  14
HETATM   14  C   UNK A   0       9.488   5.650  90.555  1.00  0.00    -0.061 C 
HETATM   15  C   UNK A   0      10.420   5.119  91.098  1.00  0.00    -0.061 C 
BRANCH  15  16
HETATM   16  C   UNK A   0      11.528   4.487  91.744  1.00  0.00     0.018 A 
HETATM   17  C   UNK A   0      11.475   4.217  93.112  1.00  0.00     0.022 A 
HETATM   18  C   UNK A   0      12.556   3.599  93.741  1.00  0.00     0.018 A 
HETATM   19  C   UNK A   0      13.663   3.264  92.990  1.00  0.00     0.032 A 
HETATM   20  C   UNK A   0      13.739   3.521  91.637  1.00  0.00     0.018 A 
HETATM   21  C   UNK A   0      12.660   4.139  91.006  1.00  0.00     0.022 A 
BRANCH  19  22
HETATM   22  C   UNK A   0      14.814   2.607  93.661  1.00  0.00     0.252 C 
HETATM   23  O   UNK A   0      15.891   2.537  93.074  1.00  0.00    -0.268 OA
ENDBRANCH  19  22
ENDBRANCH  15  16
ENDBRANCH  11  14
ENDBRANCH   7   8
ENDBRANCH   2   7
TORSDOF 9
ENDMDL
MODEL 6
REMARK VINA RESULT:      -6.6      3.933     10.479
REMARK  9 active torsions:
REMARK  status: ('A' for Active; 'I' for Inactive)
REMARK    1  A    between atoms: N_3  and  C_6 
REMARK    2  A    between atoms: C_6  and  C_9 
REMARK    3  A    between atoms: C_14  and  C_17 
REMARK       I    between atoms: N_26  and  C_15 
REMARK    4  A    between atoms: C_15  and  C_16 
REMARK    5  A    between atoms: C_20  and  C_23 
REMARK    6  A    between atoms: OG1_24  and  CB_28 
REMARK    7  A    between atoms: N_26  and  CA_27 
REMARK    8  A    between atoms: CA_27  and  CB_28 
REMARK    9  A    between atoms: CA_27  and  C_30 
ROOT
HETATM    1  O   UNK A   0      14.577   3.323  92.030  1.00  0.00    -0.388 OA
HETATM    2  N   UNK A   0      11.870   4.172  92.264  1.00  0.00     0.096 N 
HETATM    3  C   UNK A   0      12.506   3.341  93.296  1.00  0.00     0.299 C 
HETATM    4  C   UNK A   0      12.482   3.905  90.955  1.00  0.00     0.299 C 
HETATM    5  C   UNK A   0      14.011   3.599  93.313  1.00  0.00     0.198 C 
HETATM    6  C   UNK A   0      13.986   4.149  91.027  1.00  0.00     0.198 C 
ENDROOT
BRANCH   2   7
HETATM    7  C   UNK A   0      10.429   3.933  92.223  1.00  0.00     0.311 C 
BRANCH   7   8
HETATM    8  C   UNK A   0       9.655   5.174  91.932  1.00  0.00    -0.030 A 
HETATM    9  C   UNK A   0       9.922   6.344  92.644  1.00  0.00     0.010 A 
HETATM   10  C   UNK A   0       9.198   7.505  92.374  1.00  0.00     0.021 A 
HETATM   11  C   UNK A   0       8.208   7.495  91.392  1.00  0.00     0.018 A 
HETATM   12  C   UNK A   0       7.941   6.327  90.680  1.00  0.00     0.021 A 
HETATM   13  C   UNK A   0       8.664   5.166  90.951  1.00  0.00     0.010 A 
BRANCH  11  14
HETATM   14  C   UNK A   0       7.466   8.687  91.113  1.00  0.00    -0.061 C 
HETATM   15  C   UNK A   0       6.843   9.688  90.880  1.00  0.00    -0.061 C 
BRANCH  15  16
HETATM   16  C   UNK A   0       6.102  10.879  90.603  1.00  0.00     0.018 A 
HETATM   17  C   UNK A   0       6.249  11.520  89.372  1.00  0.00     0.022 A 
HETATM   18  C   UNK A   0       5.525  12.680  89.101  1.00  0.00     0.018 A 
HETATM   19  C   UNK A   0       4.670  13.173  90.064  1.00  0.00     0.032 A 
HETATM   20  C   UNK A   0       4.508  12.559  91.288  1.00  0.00     0.018 A 
HETATM   21  C   UNK A   0       5.232  11.398  91.561  1.00  0.00     0.022 A 
BRANCH  19  22
HETATM   22  C   UNK A   0       3.900  14.411  89.775  1.00  0.00     0.252 C 
HETATM   23  O   UNK A   0       4.499  15.477  89.662  1.00  0.00    -0.268 OA
ENDBRANCH  19  22
ENDBRANCH  15  16
ENDBRANCH  11  14
ENDBRANCH   7   8
ENDBRANCH   2   7
TORSDOF 9
ENDMDL
MODEL 7
REMARK VINA RESULT:      -6.6      3.945     10.416
REMARK  9 active torsions:
REMARK  status: ('A' for Active; 'I' for Inactive)
REMARK    1  A    between atoms: N_3  and  C_6 
REMARK    2  A    between atoms: C_6  and  C_9 
REMARK    3  A    between atoms: C_14  and  C_17 
REMARK       I    between atoms: N_26  and  C_15 
REMARK    4  A    between atoms: C_15  and  C_16 
REMARK    5  A    between atoms: C_20  and  C_23 
REMARK    6  A    between atoms: OG1_24  and  CB_28 
REMARK    7  A    between atoms: N_26  and  CA_27 
REMARK    8  A    between atoms: CA_27  and  CB_28 
REMARK    9  A    between atoms: CA_27  and  C_30 
ROOT
HETATM    1  O   UNK A   0      14.561   3.347  92.117  1.00  0.00    -0.388 OA
HETATM    2  N   UNK A   0      11.843   4.178  92.270  1.00  0.00     0.096 N 
HETATM    3  C   UNK A   0      12.435   3.297  93.287  1.00  0.00     0.299 C 
HETATM    4  C   UNK A   0      12.514   3.978  90.978  1.00  0.00     0.299 C 
HETATM    5  C   UNK A   0      13.936   3.557  93.384  1.00  0.00     0.198 C 
HETATM    6  C   UNK A   0      14.012   4.221  91.130  1.00  0.00     0.198 C 
ENDROOT
BRANCH   2   7
HETATM    7  C   UNK A   0      10.405   3.938  92.152  1.00  0.00     0.311 C 
BRANCH   7   8
HETATM    8  C   UNK A   0       9.643   5.187  91.863  1.00  0.00    -0.030 A 
HETATM    9  C   UNK A   0       8.719   5.213  90.818  1.00  0.00     0.010 A 
HETATM   10  C   UNK A   0       8.007   6.381  90.546  1.00  0.00     0.021 A 
HETATM   11  C   UNK A   0       8.218   7.521  91.321  1.00  0.00     0.018 A 
HETATM   12  C   UNK A   0       9.141   7.496  92.365  1.00  0.00     0.021 A 
HETATM   13  C   UNK A   0       9.853   6.328  92.637  1.00  0.00     0.010 A 
BRANCH  11  14
HETATM   14  C   UNK A   0       7.486   8.719  91.043  1.00  0.00    -0.061 C 
HETATM   15  C   UNK A   0       6.871   9.725  90.810  1.00  0.00    -0.061 C 
BRANCH  15  16
HETATM   16  C   UNK A   0       6.138  10.921  90.533  1.00  0.00     0.018 A 
HETATM   17  C   UNK A   0       5.259  11.435  91.486  1.00  0.00     0.022 A 
HETATM   18  C   UNK A   0       4.547  12.604  91.216  1.00  0.00     0.018 A 
HETATM   19  C   UNK A   0       4.730  13.232  90.002  1.00  0.00     0.032 A 
HETATM   20  C   UNK A   0       5.593  12.743  89.044  1.00  0.00     0.018 A 
HETATM   21  C   UNK A   0       6.306  11.574  89.312  1.00  0.00     0.022 A 
BRANCH  19  22
HETATM   22  C   UNK A   0       3.970  14.476  89.715  1.00  0.00     0.252 C 
HETATM   23  O   UNK A   0       4.547  15.559  89.774  1.00  0.00    -0.268 OA
ENDBRANCH  19  22
ENDBRANCH  15  16
ENDBRANCH  11  14
ENDBRANCH   7   8
ENDBRANCH   2   7
TORSDOF 9
ENDMDL
MODEL 8
REMARK VINA RESULT:      -6.6      3.916     10.427
REMARK  9 active torsions:
REMARK  status: ('A' for Active; 'I' for Inactive)
REMARK    1  A    between atoms: N_3  and  C_6 
REMARK    2  A    between atoms: C_6  and  C_9 
REMARK    3  A    between atoms: C_14  and  C_17 
REMARK       I    between atoms: N_26  and  C_15 
REMARK    4  A    between atoms: C_15  and  C_16 
REMARK    5  A    between atoms: C_20  and  C_23 
REMARK    6  A    between atoms: OG1_24  and  CB_28 
REMARK    7  A    between atoms: N_26  and  CA_27 
REMARK    8  A    between atoms: CA_27  and  CB_28 
REMARK    9  A    between atoms: CA_27  and  C_30 
ROOT
HETATM    1  O   UNK A   0      14.632   3.312  92.210  1.00  0.00    -0.388 OA
HETATM    2  N   UNK A   0      11.909   4.140  92.235  1.00  0.00     0.096 N 
HETATM    3  C   UNK A   0      12.482   3.353  93.336  1.00  0.00     0.299 C 
HETATM    4  C   UNK A   0      12.607   3.833  90.979  1.00  0.00     0.299 C 
HETATM    5  C   UNK A   0      13.980   3.628  93.442  1.00  0.00     0.198 C 
HETATM    6  C   UNK A   0      14.101   4.095  91.140  1.00  0.00     0.198 C 
ENDROOT
BRANCH   2   7
HETATM    7  C   UNK A   0      10.475   3.884  92.108  1.00  0.00     0.311 C 
BRANCH   7   8
HETATM    8  C   UNK A   0       9.699   5.127  91.831  1.00  0.00    -0.030 A 
HETATM    9  C   UNK A   0       9.873   6.251  92.638  1.00  0.00     0.010 A 
HETATM   10  C   UNK A   0       9.146   7.413  92.381  1.00  0.00     0.021 A 
HETATM   11  C   UNK A   0       8.246   7.451  91.316  1.00  0.00     0.018 A 
HETATM   12  C   UNK A   0       8.072   6.328  90.509  1.00  0.00     0.021 A 
HETATM   13  C   UNK A   0       8.798   5.166  90.766  1.00  0.00     0.010 A 
BRANCH  11  14
HETATM   14  C   UNK A   0       7.502   8.644  91.051  1.00  0.00    -0.061 C 
HETATM   15  C   UNK A   0       6.877   9.646  90.828  1.00  0.00    -0.061 C 
BRANCH  15  16
HETATM   16  C   UNK A   0       6.134  10.839  90.563  1.00  0.00     0.018 A 
HETATM   17  C   UNK A   0       5.347  11.406  91.565  1.00  0.00     0.022 A 
HETATM   18  C   UNK A   0       4.624  12.571  91.307  1.00  0.00     0.018 A 
HETATM   19  C   UNK A   0       4.705  13.142  90.054  1.00  0.00     0.032 A 
HETATM   20  C   UNK A   0       5.475  12.600  89.046  1.00  0.00     0.018 A 
HETATM   21  C   UNK A   0       6.199  11.435  89.304  1.00  0.00     0.022 A 
BRANCH  19  22
HETATM   22  C   UNK A   0       3.933  14.381  89.779  1.00  0.00     0.252 C 
HETATM   23  O   UNK A   0       4.498  15.469  89.858  1.00  0.00    -0.268 OA
ENDBRANCH  19  22
ENDBRANCH  15  16
ENDBRANCH  11  14
ENDBRANCH   7   8
ENDBRANCH   2   7
TORSDOF 9
ENDMDL
MODEL 9
REMARK VINA RESULT:      -6.6      3.384     10.338
REMARK  9 active torsions:
REMARK  status: ('A' for Active; 'I' for Inactive)
REMARK    1  A    between atoms: N_3  and  C_6 
REMARK    2  A    between atoms: C_6  and  C_9 
REMARK    3  A    between atoms: C_14  and  C_17 
REMARK       I    between atoms: N_26  and  C_15 
REMARK    4  A    between atoms: C_15  and  C_16 
REMARK    5  A    between atoms: C_20  and  C_23 
REMARK    6  A    between atoms: OG1_24  and  CB_28 
REMARK    7  A    between atoms: N_26  and  CA_27 
REMARK    8  A    between atoms: CA_27  and  CB_28 
REMARK    9  A    between atoms: CA_27  and  C_30 
ROOT
HETATM    1  O   UNK A   0      16.027   3.063  93.709  1.00  0.00    -0.388 OA
HETATM    2  N   UNK A   0      13.407   2.931  92.605  1.00  0.00     0.096 N 
HETATM    3  C   UNK A   0      14.137   1.717  92.999  1.00  0.00     0.299 C 
HETATM    4  C   UNK A   0      14.355   3.982  92.212  1.00  0.00     0.299 C 
HETATM    5  C   UNK A   0      15.115   2.045  94.124  1.00  0.00     0.198 C 
HETATM    6  C   UNK A   0      15.328   4.256  93.354  1.00  0.00     0.198 C 
ENDROOT
BRANCH   2   7
HETATM    7  C   UNK A   0      12.470   2.642  91.521  1.00  0.00     0.311 C 
BRANCH   7   8
HETATM    8  C   UNK A   0      11.580   3.799  91.217  1.00  0.00    -0.030 A 
HETATM    9  C   UNK A   0      10.969   4.499  92.258  1.00  0.00     0.010 A 
HETATM   10  C   UNK A   0      10.134   5.580  91.975  1.00  0.00     0.021 A 
HETATM   11  C   UNK A   0       9.911   5.960  90.652  1.00  0.00     0.018 A 
HETATM   12  C   UNK A   0      10.521   5.261  89.612  1.00  0.00     0.021 A 
HETATM   13  C   UNK A   0      11.356   4.180  89.894  1.00  0.00     0.010 A 
BRANCH  11  14
HETATM   14  C   UNK A   0       9.056   7.070  90.362  1.00  0.00    -0.061 C 
HETATM   15  C   UNK A   0       8.338   8.003  90.118  1.00  0.00    -0.061 C 
BRANCH  15  16
HETATM   16  C   UNK A   0       7.484   9.113  89.827  1.00  0.00     0.018 A 
HETATM   17  C   UNK A   0       6.099   8.948  89.845  1.00  0.00     0.022 A 
HETATM   18  C   UNK A   0       5.266  10.031  89.564  1.00  0.00     0.018 A 
HETATM   19  C   UNK A   0       5.836  11.253  89.273  1.00  0.00     0.032 A 
HETATM   20  C   UNK A   0       7.202  11.441  89.249  1.00  0.00     0.018 A 
HETATM   21  C   UNK A   0       8.036  10.358  89.529  1.00  0.00     0.022 A 
BRANCH  19  22
HETATM   22  C   UNK A   0       4.948  12.406  88.972  1.00  0.00     0.252 C 
HETATM   23  O   UNK A   0       4.949  12.884  87.840  1.00  0.00    -0.268 OA
ENDBRANCH  19  22
ENDBRANCH  15  16
ENDBRANCH  11  14
ENDBRANCH   7   8
ENDBRANCH   2   7
TORSDOF 9
ENDMDL
