MODEL 1
REMARK VINA RESULT:      -7.1      0.000      0.000
REMARK  9 active torsions:
REMARK  status: ('A' for Active; 'I' for Inactive)
REMARK    1  A    between atoms: O_2  and  C_17 
REMARK    2  A    between atoms: N_5  and  C_10 
REMARK    3  A    between atoms: N_6  and  C_14 
REMARK       I    between atoms: N_6  and  C_23 
REMARK       I    between atoms: N_7  and  C_22 
REMARK    4  A    between atoms: C_10  and  C_13 
REMARK    5  A    between atoms: C_14  and  C_17 
REMARK    6  A    between atoms: C_14  and  C_22 
REMARK    7  A    between atoms: C_20  and  C_25 
REMARK    8  A    between atoms: C_23  and  C_24 
REMARK    9  A    between atoms: C_28  and  C_31 
ROOT
HETATM    1  O   UNL     1      16.073   3.950  94.123  1.00  0.00    -0.388 OA
HETATM    2  N   UNL     1      14.143   2.614  92.513  1.00  0.00     0.096 N 
HETATM    3  C   UNL     1      14.243   4.080  92.535  1.00  0.00     0.299 C 
HETATM    4  C   UNL     1      14.587   2.060  93.800  1.00  0.00     0.299 C 
HETATM    5  C   UNL     1      15.674   4.496  92.865  1.00  0.00     0.198 C 
HETATM    6  C   UNL     1      16.009   2.523  94.100  1.00  0.00     0.198 C 
ENDROOT
BRANCH   2   7
HETATM    7  C   UNL     1      12.777   2.192  92.209  1.00  0.00     0.311 C 
BRANCH   7   8
HETATM    8  C   UNL     1      11.887   3.343  91.883  1.00  0.00    -0.030 A 
HETATM    9  C   UNL     1      11.298   4.081  92.910  1.00  0.00     0.010 A 
HETATM   10  C   UNL     1      10.464   5.157  92.605  1.00  0.00     0.021 A 
HETATM   11  C   UNL     1      10.220   5.494  91.274  1.00  0.00     0.018 A 
HETATM   12  C   UNL     1      10.807   4.757  90.248  1.00  0.00     0.021 A 
HETATM   13  C   UNL     1      11.641   3.681  90.552  1.00  0.00     0.010 A 
BRANCH  11  14
HETATM   14  C   UNL     1       9.365   6.598  90.962  1.00  0.00    -0.061 C 
HETATM   15  C   UNL     1       8.647   7.526  90.700  1.00  0.00    -0.061 C 
BRANCH  15  16
HETATM   16  C   UNL     1       7.792   8.629  90.388  1.00  0.00     0.018 A 
HETATM   17  C   UNL     1       8.345   9.852  90.006  1.00  0.00     0.022 A 
HETATM   18  C   UNL     1       7.511  10.927  89.699  1.00  0.00     0.018 A 
HETATM   19  C   UNL     1       6.145  10.756  89.782  1.00  0.00     0.032 A 
HETATM   20  C   UNL     1       5.575   9.558  90.158  1.00  0.00     0.018 A 
HETATM   21  C   UNL     1       6.407   8.482  90.465  1.00  0.00     0.022 A 
BRANCH  19  22
HETATM   22  C   UNL     1       5.257  11.902  89.457  1.00  0.00     0.252 C 
HETATM   23  O   UNL     1       4.983  12.134  88.282  1.00  0.00    -0.268 OA
HETATM   24  N   UNL     1       4.776  12.624  90.540  1.00  0.00    -0.342 N 
HETATM   25  H   UNL     1       5.026  12.358  91.486  1.00  0.00     0.163 HD
BRANCH  24  26
HETATM   26  C   UNL     1       3.886  13.747  90.390  1.00  0.00     0.199 C 
BRANCH  26  27
HETATM   27  C   UNL     1       2.625  13.626  91.255  1.00  0.00     0.145 C 
HETATM   28  C   UNL     1       2.937  13.189  92.683  1.00  0.00     0.042 C 
BRANCH  27  29
HETATM   29  O   UNL     1       1.949  14.882  91.292  1.00  0.00    -0.393 OA
HETATM   30  H   UNL     1       1.642  15.036  92.202  1.00  0.00     0.210 HD
ENDBRANCH  27  29
ENDBRANCH  26  27
BRANCH  26  31
HETATM   31  C   UNL     1       4.670  15.011  90.727  1.00  0.00     0.220 C 
HETATM   32  O   UNL     1       4.787  15.441  91.873  1.00  0.00    -0.278 OA
HETATM   33  N   UNL     1       5.184  15.617  89.607  1.00  0.00    -0.271 NA
HETATM   34  H   UNL     1       5.032  15.341  88.643  1.00  0.00     0.127 HD
HETATM   35  H   UNL     1       4.775  16.813  88.997  1.00  0.00     0.127 HD
ENDBRANCH  26  31
ENDBRANCH  24  26
ENDBRANCH  19  22
ENDBRANCH  15  16
ENDBRANCH  11  14
ENDBRANCH   7   8
ENDBRANCH   2   7
TORSDOF 9
ENDMDL
MODEL 2
REMARK VINA RESULT:      -6.9      1.825      2.401
REMARK  9 active torsions:
REMARK  status: ('A' for Active; 'I' for Inactive)
REMARK    1  A    between atoms: O_2  and  C_17 
REMARK    2  A    between atoms: N_5  and  C_10 
REMARK    3  A    between atoms: N_6  and  C_14 
REMARK       I    between atoms: N_6  and  C_23 
REMARK       I    between atoms: N_7  and  C_22 
REMARK    4  A    between atoms: C_10  and  C_13 
REMARK    5  A    between atoms: C_14  and  C_17 
REMARK    6  A    between atoms: C_14  and  C_22 
REMARK    7  A    between atoms: C_20  and  C_25 
REMARK    8  A    between atoms: C_23  and  C_24 
REMARK    9  A    between atoms: C_28  and  C_31 
ROOT
HETATM    1  O   UNL     1      16.028   3.825  94.117  1.00  0.00    -0.388 OA
HETATM    2  N   UNL     1      14.169   2.575  92.361  1.00  0.00     0.096 N 
HETATM    3  C   UNL     1      14.371   4.031  92.356  1.00  0.00     0.299 C 
HETATM    4  C   UNL     1      14.448   2.033  93.698  1.00  0.00     0.299 C 
HETATM    5  C   UNL     1      15.791   4.357  92.813  1.00  0.00     0.198 C 
HETATM    6  C   UNL     1      15.864   2.406  94.124  1.00  0.00     0.198 C 
ENDROOT
BRANCH   2   7
HETATM    7  C   UNL     1      12.811   2.239  91.937  1.00  0.00     0.311 C 
BRANCH   7   8
HETATM    8  C   UNL     1      11.884   3.403  92.029  1.00  0.00    -0.030 A 
HETATM    9  C   UNL     1      11.571   3.947  93.275  1.00  0.00     0.010 A 
HETATM   10  C   UNL     1      10.702   5.034  93.363  1.00  0.00     0.021 A 
HETATM   11  C   UNL     1      10.147   5.577  92.204  1.00  0.00     0.018 A 
HETATM   12  C   UNL     1      10.458   5.034  90.960  1.00  0.00     0.021 A 
HETATM   13  C   UNL     1      11.327   3.947  90.871  1.00  0.00     0.010 A 
BRANCH  11  14
HETATM   14  C   UNL     1       9.256   6.694  92.294  1.00  0.00    -0.061 C 
HETATM   15  C   UNL     1       8.508   7.631  92.370  1.00  0.00    -0.061 C 
BRANCH  15  16
HETATM   16  C   UNL     1       7.618   8.746  92.460  1.00  0.00     0.018 A 
HETATM   17  C   UNL     1       6.941   9.191  91.324  1.00  0.00     0.022 A 
HETATM   18  C   UNL     1       6.070  10.277  91.413  1.00  0.00     0.018 A 
HETATM   19  C   UNL     1       5.896  10.893  92.635  1.00  0.00     0.032 A 
HETATM   20  C   UNL     1       6.553  10.473  93.772  1.00  0.00     0.018 A 
HETATM   21  C   UNL     1       7.424   9.387  93.684  1.00  0.00     0.022 A 
BRANCH  19  22
HETATM   22  C   UNL     1       4.970  12.052  92.729  1.00  0.00     0.252 C 
HETATM   23  O   UNL     1       4.660  12.484  93.837  1.00  0.00    -0.268 OA
HETATM   24  N   UNL     1       4.536  12.583  91.522  1.00  0.00    -0.342 N 
HETATM   25  H   UNL     1       4.854  12.189  90.644  1.00  0.00     0.163 HD
BRANCH  24  26
HETATM   26  C   UNL     1       3.656  13.721  91.448  1.00  0.00     0.199 C 
BRANCH  26  27
HETATM   27  C   UNL     1       3.752  14.459  90.106  1.00  0.00     0.145 C 
HETATM   28  C   UNL     1       5.081  14.215  89.399  1.00  0.00     0.042 C 
BRANCH  27  29
HETATM   29  O   UNL     1       2.689  14.038  89.252  1.00  0.00    -0.393 OA
HETATM   30  H   UNL     1       2.287  14.828  88.853  1.00  0.00     0.210 HD
ENDBRANCH  27  29
ENDBRANCH  26  27
BRANCH  26  31
HETATM   31  C   UNL     1       2.236  13.230  91.710  1.00  0.00     0.220 C 
HETATM   32  O   UNL     1       1.879  12.072  91.500  1.00  0.00    -0.278 OA
HETATM   33  N   UNL     1       1.415  14.234  92.162  1.00  0.00    -0.271 NA
HETATM   34  H   UNL     1       1.652  15.214  92.260  1.00  0.00     0.127 HD
HETATM   35  H   UNL     1       0.372  14.881  91.481  1.00  0.00     0.127 HD
ENDBRANCH  26  31
ENDBRANCH  24  26
ENDBRANCH  19  22
ENDBRANCH  15  16
ENDBRANCH  11  14
ENDBRANCH   7   8
ENDBRANCH   2   7
TORSDOF 9
ENDMDL
MODEL 3
REMARK VINA RESULT:      -6.8      1.104      1.623
REMARK  9 active torsions:
REMARK  status: ('A' for Active; 'I' for Inactive)
REMARK    1  A    between atoms: O_2  and  C_17 
REMARK    2  A    between atoms: N_5  and  C_10 
REMARK    3  A    between atoms: N_6  and  C_14 
REMARK       I    between atoms: N_6  and  C_23 
REMARK       I    between atoms: N_7  and  C_22 
REMARK    4  A    between atoms: C_10  and  C_13 
REMARK    5  A    between atoms: C_14  and  C_17 
REMARK    6  A    between atoms: C_14  and  C_22 
REMARK    7  A    between atoms: C_20  and  C_25 
REMARK    8  A    between atoms: C_23  and  C_24 
REMARK    9  A    between atoms: C_28  and  C_31 
ROOT
HETATM    1  O   UNL     1      16.601   4.287  94.123  1.00  0.00    -0.388 OA
HETATM    2  N   UNL     1      14.691   2.706  92.725  1.00  0.00     0.096 N 
HETATM    3  C   UNL     1      14.623   4.174  92.720  1.00  0.00     0.299 C 
HETATM    4  C   UNL     1      15.317   2.234  93.967  1.00  0.00     0.299 C 
HETATM    5  C   UNL     1      16.023   4.756  92.903  1.00  0.00     0.198 C 
HETATM    6  C   UNL     1      16.698   2.862  94.122  1.00  0.00     0.198 C 
ENDROOT
BRANCH   2   7
HETATM    7  C   UNL     1      13.359   2.126  92.561  1.00  0.00     0.311 C 
BRANCH   7   8
HETATM    8  C   UNL     1      12.330   3.152  92.224  1.00  0.00    -0.030 A 
HETATM    9  C   UNL     1      11.764   3.929  93.236  1.00  0.00     0.010 A 
HETATM   10  C   UNL     1      10.800   4.887  92.922  1.00  0.00     0.021 A 
HETATM   11  C   UNL     1      10.405   5.069  91.598  1.00  0.00     0.018 A 
HETATM   12  C   UNL     1      10.970   4.295  90.587  1.00  0.00     0.021 A 
HETATM   13  C   UNL     1      11.933   3.336  90.900  1.00  0.00     0.010 A 
BRANCH  11  14
HETATM   14  C   UNL     1       9.418   6.054  91.276  1.00  0.00    -0.061 C 
HETATM   15  C   UNL     1       8.588   6.881  91.006  1.00  0.00    -0.061 C 
BRANCH  15  16
HETATM   16  C   UNL     1       7.603   7.866  90.685  1.00  0.00     0.018 A 
HETATM   17  C   UNL     1       6.411   7.920  91.409  1.00  0.00     0.022 A 
HETATM   18  C   UNL     1       5.451   8.882  91.098  1.00  0.00     0.018 A 
HETATM   19  C   UNL     1       5.703   9.768  90.071  1.00  0.00     0.032 A 
HETATM   20  C   UNL     1       6.872   9.735  89.341  1.00  0.00     0.018 A 
HETATM   21  C   UNL     1       7.834   8.773  89.651  1.00  0.00     0.022 A 
BRANCH  19  22
HETATM   22  C   UNL     1       4.679  10.792  89.739  1.00  0.00     0.252 C 
HETATM   23  O   UNL     1       3.562  10.428  89.379  1.00  0.00    -0.268 OA
HETATM   24  N   UNL     1       5.070  12.115  89.888  1.00  0.00    -0.342 N 
HETATM   25  H   UNL     1       6.003  12.340  90.214  1.00  0.00     0.163 HD
BRANCH  24  26
HETATM   26  C   UNL     1       4.183  13.221  89.628  1.00  0.00     0.199 C 
BRANCH  26  27
HETATM   27  C   UNL     1       3.705  13.912  90.911  1.00  0.00     0.145 C 
HETATM   28  C   UNL     1       2.208  13.740  91.144  1.00  0.00     0.042 C 
BRANCH  27  29
HETATM   29  O   UNL     1       4.413  13.382  92.032  1.00  0.00    -0.393 OA
HETATM   30  H   UNL     1       3.957  12.575  92.326  1.00  0.00     0.210 HD
ENDBRANCH  27  29
ENDBRANCH  26  27
BRANCH  26  31
HETATM   31  C   UNL     1       4.912  14.197  88.711  1.00  0.00     0.220 C 
HETATM   32  O   UNL     1       5.195  13.935  87.543  1.00  0.00    -0.278 OA
HETATM   33  N   UNL     1       5.241  15.366  89.353  1.00  0.00    -0.271 NA
HETATM   34  H   UNL     1       5.104  15.579  90.335  1.00  0.00     0.127 HD
HETATM   35  H   UNL     1       6.509  15.810  89.760  1.00  0.00     0.127 HD
ENDBRANCH  26  31
ENDBRANCH  24  26
ENDBRANCH  19  22
ENDBRANCH  15  16
ENDBRANCH  11  14
ENDBRANCH   7   8
ENDBRANCH   2   7
TORSDOF 9
ENDMDL
MODEL 4
REMARK VINA RESULT:      -6.5      1.480      2.009
REMARK  9 active torsions:
REMARK  status: ('A' for Active; 'I' for Inactive)
REMARK    1  A    between atoms: O_2  and  C_17 
REMARK    2  A    between atoms: N_5  and  C_10 
REMARK    3  A    between atoms: N_6  and  C_14 
REMARK       I    between atoms: N_6  and  C_23 
REMARK       I    between atoms: N_7  and  C_22 
REMARK    4  A    between atoms: C_10  and  C_13 
REMARK    5  A    between atoms: C_14  and  C_17 
REMARK    6  A    between atoms: C_14  and  C_22 
REMARK    7  A    between atoms: C_20  and  C_25 
REMARK    8  A    between atoms: C_23  and  C_24 
REMARK    9  A    between atoms: C_28  and  C_31 
ROOT
HETATM    1  O   UNL     1      16.701   3.443  93.632  1.00  0.00    -0.388 OA
HETATM    2  N   UNL     1      14.012   2.912  92.866  1.00  0.00     0.096 N 
HETATM    3  C   UNL     1      14.966   1.824  93.121  1.00  0.00     0.299 C 
HETATM    4  C   UNL     1      14.724   4.107  92.393  1.00  0.00     0.299 C 
HETATM    5  C   UNL     1      16.021   2.287  94.124  1.00  0.00     0.198 C 
HETATM    6  C   UNL     1      15.784   4.515  93.411  1.00  0.00     0.198 C 
ENDROOT
BRANCH   2   7
HETATM    7  C   UNL     1      12.998   2.495  91.900  1.00  0.00     0.311 C 
BRANCH   7   8
HETATM    8  C   UNL     1      11.871   3.466  91.804  1.00  0.00    -0.030 A 
HETATM    9  C   UNL     1      11.358   4.054  92.960  1.00  0.00     0.010 A 
HETATM   10  C   UNL     1      10.302   4.961  92.872  1.00  0.00     0.021 A 
HETATM   11  C   UNL     1       9.761   5.281  91.627  1.00  0.00     0.018 A 
HETATM   12  C   UNL     1      10.273   4.694  90.471  1.00  0.00     0.021 A 
HETATM   13  C   UNL     1      11.328   3.787  90.559  1.00  0.00     0.010 A 
BRANCH  11  14
HETATM   14  C   UNL     1       8.680   6.213  91.536  1.00  0.00    -0.061 C 
HETATM   15  C   UNL     1       7.770   6.996  91.460  1.00  0.00    -0.061 C 
BRANCH  15  16
HETATM   16  C   UNL     1       6.689   7.928  91.370  1.00  0.00     0.018 A 
HETATM   17  C   UNL     1       6.004   8.312  92.523  1.00  0.00     0.022 A 
HETATM   18  C   UNL     1       4.951   9.223  92.436  1.00  0.00     0.018 A 
HETATM   19  C   UNL     1       4.609   9.729  91.199  1.00  0.00     0.032 A 
HETATM   20  C   UNL     1       5.270   9.365  90.045  1.00  0.00     0.018 A 
HETATM   21  C   UNL     1       6.323   8.454  90.132  1.00  0.00     0.022 A 
BRANCH  19  22
HETATM   22  C   UNL     1       3.486  10.698  91.106  1.00  0.00     0.252 C 
HETATM   23  O   UNL     1       2.396  10.315  90.688  1.00  0.00    -0.268 OA
HETATM   24  N   UNL     1       3.761  11.990  91.534  1.00  0.00    -0.342 N 
HETATM   25  H   UNL     1       4.679  12.227  91.891  1.00  0.00     0.163 HD
BRANCH  24  26
HETATM   26  C   UNL     1       2.770  13.036  91.529  1.00  0.00     0.199 C 
BRANCH  26  27
HETATM   27  C   UNL     1       2.496  13.602  92.928  1.00  0.00     0.145 C 
HETATM   28  C   UNL     1       1.558  12.717  93.742  1.00  0.00     0.042 C 
BRANCH  27  29
HETATM   29  O   UNL     1       3.728  13.744  93.634  1.00  0.00    -0.393 OA
HETATM   30  H   UNL     1       3.979  14.684  93.624  1.00  0.00     0.210 HD
ENDBRANCH  27  29
ENDBRANCH  26  27
BRANCH  26  31
HETATM   31  C   UNL     1       3.247  14.125  90.574  1.00  0.00     0.220 C 
HETATM   32  O   UNL     1       3.738  15.185  90.958  1.00  0.00    -0.278 OA
HETATM   33  N   UNL     1       3.027  13.795  89.258  1.00  0.00    -0.271 NA
HETATM   34  H   UNL     1       2.546  12.973  88.911  1.00  0.00     0.127 HD
HETATM   35  H   UNL     1       2.083  14.334  88.370  1.00  0.00     0.127 HD
ENDBRANCH  26  31
ENDBRANCH  24  26
ENDBRANCH  19  22
ENDBRANCH  15  16
ENDBRANCH  11  14
ENDBRANCH   7   8
ENDBRANCH   2   7
TORSDOF 9
ENDMDL
MODEL 5
REMARK VINA RESULT:      -6.5      1.303      2.204
REMARK  9 active torsions:
REMARK  status: ('A' for Active; 'I' for Inactive)
REMARK    1  A    between atoms: O_2  and  C_17 
REMARK    2  A    between atoms: N_5  and  C_10 
REMARK    3  A    between atoms: N_6  and  C_14 
REMARK       I    between atoms: N_6  and  C_23 
REMARK       I    between atoms: N_7  and  C_22 
REMARK    4  A    between atoms: C_10  and  C_13 
REMARK    5  A    between atoms: C_14  and  C_17 
REMARK    6  A    between atoms: C_14  and  C_22 
REMARK    7  A    between atoms: C_20  and  C_25 
REMARK    8  A    between atoms: C_23  and  C_24 
REMARK    9  A    between atoms: C_28  and  C_31 
ROOT
HETATM    1  O   UNL     1      16.586   3.184  93.629  1.00  0.00    -0.388 OA
HETATM    2  N   UNL     1      13.859   2.915  92.857  1.00  0.00     0.096 N 
HETATM    3  C   UNL     1      14.702   1.741  93.120  1.00  0.00     0.299 C 
HETATM    4  C   UNL     1      14.686   4.032  92.380  1.00  0.00     0.299 C 
HETATM    5  C   UNL     1      15.794   2.103  94.124  1.00  0.00     0.198 C 
HETATM    6  C   UNL     1      15.778   4.340  93.400  1.00  0.00     0.198 C 
ENDROOT
BRANCH   2   7
HETATM    7  C   UNL     1      12.812   2.594  91.890  1.00  0.00     0.311 C 
BRANCH   7   8
HETATM    8  C   UNL     1      11.802   3.684  91.762  1.00  0.00    -0.030 A 
HETATM    9  C   UNL     1      11.562   4.268  90.518  1.00  0.00     0.010 A 
HETATM   10  C   UNL     1      10.619   5.290  90.398  1.00  0.00     0.021 A 
HETATM   11  C   UNL     1       9.917   5.724  91.522  1.00  0.00     0.018 A 
HETATM   12  C   UNL     1      10.156   5.141  92.764  1.00  0.00     0.021 A 
HETATM   13  C   UNL     1      11.099   4.120  92.885  1.00  0.00     0.010 A 
BRANCH  11  14
HETATM   14  C   UNL     1       8.949   6.770  91.398  1.00  0.00    -0.061 C 
HETATM   15  C   UNL     1       8.136   7.650  91.293  1.00  0.00    -0.061 C 
BRANCH  15  16
HETATM   16  C   UNL     1       7.168   8.695  91.169  1.00  0.00     0.018 A 
HETATM   17  C   UNL     1       7.167   9.512  90.038  1.00  0.00     0.022 A 
HETATM   18  C   UNL     1       6.221  10.529  89.915  1.00  0.00     0.018 A 
HETATM   19  C   UNL     1       5.298  10.707  90.925  1.00  0.00     0.032 A 
HETATM   20  C   UNL     1       5.279   9.914  92.053  1.00  0.00     0.018 A 
HETATM   21  C   UNL     1       6.225   8.896  92.177  1.00  0.00     0.022 A 
BRANCH  19  22
HETATM   22  C   UNL     1       4.292  11.793  90.795  1.00  0.00     0.252 C 
HETATM   23  O   UNL     1       3.305  11.614  90.085  1.00  0.00    -0.268 OA
HETATM   24  N   UNL     1       4.544  12.946  91.526  1.00  0.00    -0.342 N 
HETATM   25  H   UNL     1       5.369  13.013  92.111  1.00  0.00     0.163 HD
BRANCH  24  26
HETATM   26  C   UNL     1       3.651  14.077  91.523  1.00  0.00     0.199 C 
BRANCH  26  27
HETATM   27  C   UNL     1       3.528  14.732  90.142  1.00  0.00     0.145 C 
HETATM   28  C   UNL     1       4.822  14.653  89.340  1.00  0.00     0.042 C 
BRANCH  27  29
HETATM   29  O   UNL     1       2.486  14.096  89.402  1.00  0.00    -0.393 OA
HETATM   30  H   UNL     1       2.887  13.623  88.654  1.00  0.00     0.210 HD
ENDBRANCH  27  29
ENDBRANCH  26  27
BRANCH  26  31
HETATM   31  C   UNL     1       2.295  13.600  92.033  1.00  0.00     0.220 C 
HETATM   32  O   UNL     1       1.245  14.198  91.803  1.00  0.00    -0.278 OA
HETATM   33  N   UNL     1       2.398  12.464  92.798  1.00  0.00    -0.271 NA
HETATM   34  H   UNL     1       3.253  11.998  93.081  1.00  0.00     0.127 HD
HETATM   35  H   UNL     1       2.241  12.331  94.187  1.00  0.00     0.127 HD
ENDBRANCH  26  31
ENDBRANCH  24  26
ENDBRANCH  19  22
ENDBRANCH  15  16
ENDBRANCH  11  14
ENDBRANCH   7   8
ENDBRANCH   2   7
TORSDOF 9
ENDMDL
MODEL 6
REMARK VINA RESULT:      -6.1      2.201     12.275
REMARK  9 active torsions:
REMARK  status: ('A' for Active; 'I' for Inactive)
REMARK    1  A    between atoms: O_2  and  C_17 
REMARK    2  A    between atoms: N_5  and  C_10 
REMARK    3  A    between atoms: N_6  and  C_14 
REMARK       I    between atoms: N_6  and  C_23 
REMARK       I    between atoms: N_7  and  C_22 
REMARK    4  A    between atoms: C_10  and  C_13 
REMARK    5  A    between atoms: C_14  and  C_17 
REMARK    6  A    between atoms: C_14  and  C_22 
REMARK    7  A    between atoms: C_20  and  C_25 
REMARK    8  A    between atoms: C_23  and  C_24 
REMARK    9  A    between atoms: C_28  and  C_31 
ROOT
HETATM    1  O   UNL     1       2.702  14.220  94.120  1.00  0.00    -0.388 OA
HETATM    2  N   UNL     1       2.481  14.348  91.285  1.00  0.00     0.096 N 
HETATM    3  C   UNL     1       1.866  13.257  92.054  1.00  0.00     0.299 C 
HETATM    4  C   UNL     1       3.670  14.851  91.987  1.00  0.00     0.299 C 
HETATM    5  C   UNL     1       1.527  13.745  93.461  1.00  0.00     0.198 C 
HETATM    6  C   UNL     1       3.289  15.300  93.394  1.00  0.00     0.198 C 
ENDROOT
BRANCH   2   7
HETATM    7  C   UNL     1       2.825  13.900  89.936  1.00  0.00     0.311 C 
BRANCH   7   8
HETATM    8  C   UNL     1       3.838  12.806  89.942  1.00  0.00    -0.030 A 
HETATM    9  C   UNL     1       5.070  12.995  89.314  1.00  0.00     0.010 A 
HETATM   10  C   UNL     1       6.018  11.972  89.317  1.00  0.00     0.021 A 
HETATM   11  C   UNL     1       5.735  10.762  89.950  1.00  0.00     0.018 A 
HETATM   12  C   UNL     1       4.506  10.573  90.578  1.00  0.00     0.021 A 
HETATM   13  C   UNL     1       3.557  11.595  90.575  1.00  0.00     0.010 A 
BRANCH  11  14
HETATM   14  C   UNL     1       6.709   9.714  89.955  1.00  0.00    -0.061 C 
HETATM   15  C   UNL     1       7.527   8.833  89.958  1.00  0.00    -0.061 C 
BRANCH  15  16
HETATM   16  C   UNL     1       8.500   7.785  89.962  1.00  0.00     0.018 A 
HETATM   17  C   UNL     1       9.185   7.467  88.789  1.00  0.00     0.022 A 
HETATM   18  C   UNL     1      10.137   6.447  88.794  1.00  0.00     0.018 A 
HETATM   19  C   UNL     1      10.382   5.770  89.970  1.00  0.00     0.032 A 
HETATM   20  C   UNL     1       9.718   6.066  91.142  1.00  0.00     0.018 A 
HETATM   21  C   UNL     1       8.767   7.085  91.139  1.00  0.00     0.022 A 
BRANCH  19  22
HETATM   22  C   UNL     1      11.395   4.682  89.974  1.00  0.00     0.252 C 
HETATM   23  O   UNL     1      11.619   4.067  88.934  1.00  0.00    -0.268 OA
HETATM   24  N   UNL     1      12.041   4.458  91.182  1.00  0.00    -0.342 N 
HETATM   25  H   UNL     1      11.822   5.023  91.994  1.00  0.00     0.163 HD
BRANCH  24  26
HETATM   26  C   UNL     1      13.064   3.456  91.339  1.00  0.00     0.199 C 
BRANCH  26  27
HETATM   27  C   UNL     1      14.278   3.965  92.128  1.00  0.00     0.145 C 
HETATM   28  C   UNL     1      13.984   4.121  93.615  1.00  0.00     0.042 C 
BRANCH  27  29
HETATM   29  O   UNL     1      15.368   3.058  91.963  1.00  0.00    -0.393 OA
HETATM   30  H   UNL     1      15.358   2.431  92.706  1.00  0.00     0.210 HD
ENDBRANCH  27  29
ENDBRANCH  26  27
BRANCH  26  31
HETATM   31  C   UNL     1      12.430   2.246  92.018  1.00  0.00     0.220 C 
HETATM   32  O   UNL     1      13.037   1.195  92.217  1.00  0.00    -0.278 OA
HETATM   33  N   UNL     1      11.111   2.461  92.335  1.00  0.00    -0.271 NA
HETATM   34  H   UNL     1      10.557   3.278  92.106  1.00  0.00     0.127 HD
HETATM   35  H   UNL     1       9.969   1.909  91.735  1.00  0.00     0.127 HD
ENDBRANCH  26  31
ENDBRANCH  24  26
ENDBRANCH  19  22
ENDBRANCH  15  16
ENDBRANCH  11  14
ENDBRANCH   7   8
ENDBRANCH   2   7
TORSDOF 9
ENDMDL
MODEL 7
REMARK VINA RESULT:      -5.6      1.910     12.694
REMARK  9 active torsions:
REMARK  status: ('A' for Active; 'I' for Inactive)
REMARK    1  A    between atoms: O_2  and  C_17 
REMARK    2  A    between atoms: N_5  and  C_10 
REMARK    3  A    between atoms: N_6  and  C_14 
REMARK       I    between atoms: N_6  and  C_23 
REMARK       I    between atoms: N_7  and  C_22 
REMARK    4  A    between atoms: C_10  and  C_13 
REMARK    5  A    between atoms: C_14  and  C_17 
REMARK    6  A    between atoms: C_14  and  C_22 
REMARK    7  A    between atoms: C_20  and  C_25 
REMARK    8  A    between atoms: C_23  and  C_24 
REMARK    9  A    between atoms: C_28  and  C_31 
ROOT
HETATM    1  O   UNL     1       2.046  15.406  92.802  1.00  0.00    -0.388 OA
HETATM    2  N   UNL     1       3.240  13.206  91.447  1.00  0.00     0.096 N 
HETATM    3  C   UNL     1       4.032  14.371  91.866  1.00  0.00     0.299 C 
HETATM    4  C   UNL     1       1.852  13.609  91.184  1.00  0.00     0.299 C 
HETATM    5  C   UNL     1       3.390  15.018  93.092  1.00  0.00     0.198 C 
HETATM    6  C   UNL     1       1.262  14.274  92.424  1.00  0.00     0.198 C 
ENDROOT
BRANCH   2   7
HETATM    7  C   UNL     1       3.831  12.576  90.268  1.00  0.00     0.311 C 
BRANCH   7   8
HETATM    8  C   UNL     1       4.826  11.525  90.623  1.00  0.00    -0.030 A 
HETATM    9  C   UNL     1       5.781  11.125  89.688  1.00  0.00     0.010 A 
HETATM   10  C   UNL     1       6.712  10.141  90.019  1.00  0.00     0.021 A 
HETATM   11  C   UNL     1       6.688   9.558  91.286  1.00  0.00     0.018 A 
HETATM   12  C   UNL     1       5.735   9.956  92.221  1.00  0.00     0.021 A 
HETATM   13  C   UNL     1       4.804  10.941  91.890  1.00  0.00     0.010 A 
BRANCH  11  14
HETATM   14  C   UNL     1       7.644   8.549  91.626  1.00  0.00    -0.061 C 
HETATM   15  C   UNL     1       8.448   7.702  91.911  1.00  0.00    -0.061 C 
BRANCH  15  16
HETATM   16  C   UNL     1       9.404   6.695  92.251  1.00  0.00     0.018 A 
HETATM   17  C   UNL     1       9.947   5.884  91.253  1.00  0.00     0.022 A 
HETATM   18  C   UNL     1      10.881   4.903  91.585  1.00  0.00     0.018 A 
HETATM   19  C   UNL     1      11.253   4.756  92.905  1.00  0.00     0.032 A 
HETATM   20  C   UNL     1      10.731   5.544  93.909  1.00  0.00     0.018 A 
HETATM   21  C   UNL     1       9.796   6.525  93.579  1.00  0.00     0.022 A 
BRANCH  19  22
HETATM   22  C   UNL     1      12.247   3.709  93.258  1.00  0.00     0.252 C 
HETATM   23  O   UNL     1      11.940   2.526  93.140  1.00  0.00    -0.268 OA
HETATM   24  N   UNL     1      13.487   4.167  93.682  1.00  0.00    -0.342 N 
HETATM   25  H   UNL     1      13.677   5.161  93.731  1.00  0.00     0.163 HD
BRANCH  24  26
HETATM   26  C   UNL     1      14.563   3.277  94.036  1.00  0.00     0.199 C 
BRANCH  26  27
HETATM   27  C   UNL     1      14.581   2.000  93.186  1.00  0.00     0.145 C 
HETATM   28  C   UNL     1      15.541   2.099  92.005  1.00  0.00     0.042 C 
BRANCH  27  29
HETATM   29  O   UNL     1      14.960   0.890  93.999  1.00  0.00    -0.393 OA
HETATM   30  H   UNL     1      15.055   0.111  93.426  1.00  0.00     0.210 HD
ENDBRANCH  27  29
ENDBRANCH  26  27
BRANCH  26  31
HETATM   31  C   UNL     1      15.871   4.050  93.904  1.00  0.00     0.220 C 
HETATM   32  O   UNL     1      15.916   5.241  93.601  1.00  0.00    -0.278 OA
HETATM   33  N   UNL     1      16.969   3.254  94.123  1.00  0.00    -0.271 NA
HETATM   34  H   UNL     1      16.971   2.254  94.286  1.00  0.00     0.127 HD
HETATM   35  H   UNL     1      17.905   2.785  93.188  1.00  0.00     0.127 HD
ENDBRANCH  26  31
ENDBRANCH  24  26
ENDBRANCH  19  22
ENDBRANCH  15  16
ENDBRANCH  11  14
ENDBRANCH   7   8
ENDBRANCH   2   7
TORSDOF 9
ENDMDL
MODEL 8
REMARK VINA RESULT:      -5.2      1.901     12.345
REMARK  9 active torsions:
REMARK  status: ('A' for Active; 'I' for Inactive)
REMARK    1  A    between atoms: O_2  and  C_17 
REMARK    2  A    between atoms: N_5  and  C_10 
REMARK    3  A    between atoms: N_6  and  C_14 
REMARK       I    between atoms: N_6  and  C_23 
REMARK       I    between atoms: N_7  and  C_22 
REMARK    4  A    between atoms: C_10  and  C_13 
REMARK    5  A    between atoms: C_14  and  C_17 
REMARK    6  A    between atoms: C_14  and  C_22 
REMARK    7  A    between atoms: C_20  and  C_25 
REMARK    8  A    between atoms: C_23  and  C_24 
REMARK    9  A    between atoms: C_28  and  C_31 
ROOT
HETATM    1  O   UNL     1       5.659  14.930  89.000  1.00  0.00    -0.388 OA
HETATM    2  N   UNL     1       3.784  13.092  90.100  1.00  0.00     0.096 N 
HETATM    3  C   UNL     1       4.096  14.363  90.768  1.00  0.00     0.299 C 
HETATM    4  C   UNL     1       4.944  12.635  89.322  1.00  0.00     0.299 C 
HETATM    5  C   UNL     1       4.526  15.400  89.733  1.00  0.00     0.198 C 
HETATM    6  C   UNL     1       5.354  13.710  88.322  1.00  0.00     0.198 C 
ENDROOT
BRANCH   2   7
HETATM    7  C   UNL     1       3.379  12.081  91.074  1.00  0.00     0.311 C 
BRANCH   7   8
HETATM    8  C   UNL     1       4.444  11.065  91.314  1.00  0.00    -0.030 A 
HETATM    9  C   UNL     1       4.613  10.009  90.419  1.00  0.00     0.010 A 
HETATM   10  C   UNL     1       5.608   9.057  90.644  1.00  0.00     0.021 A 
HETATM   11  C   UNL     1       6.433   9.164  91.763  1.00  0.00     0.018 A 
HETATM   12  C   UNL     1       6.264  10.218  92.658  1.00  0.00     0.021 A 
HETATM   13  C   UNL     1       5.270  11.170  92.434  1.00  0.00     0.010 A 
BRANCH  11  14
HETATM   14  C   UNL     1       7.454   8.188  91.992  1.00  0.00    -0.061 C 
HETATM   15  C   UNL     1       8.313   7.369  92.186  1.00  0.00    -0.061 C 
BRANCH  15  16
HETATM   16  C   UNL     1       9.333   6.394  92.416  1.00  0.00     0.018 A 
HETATM   17  C   UNL     1       9.651   5.471  91.419  1.00  0.00     0.022 A 
HETATM   18  C   UNL     1      10.649   4.522  91.643  1.00  0.00     0.018 A 
HETATM   19  C   UNL     1      11.305   4.517  92.856  1.00  0.00     0.032 A 
HETATM   20  C   UNL     1      11.008   5.419  93.857  1.00  0.00     0.018 A 
HETATM   21  C   UNL     1      10.011   6.368  93.634  1.00  0.00     0.022 A 
BRANCH  19  22
HETATM   22  C   UNL     1      12.366   3.505  93.094  1.00  0.00     0.252 C 
HETATM   23  O   UNL     1      12.053   2.321  93.196  1.00  0.00    -0.268 OA
HETATM   24  N   UNL     1      13.665   3.989  93.161  1.00  0.00    -0.342 N 
HETATM   25  H   UNL     1      13.850   4.978  93.043  1.00  0.00     0.163 HD
BRANCH  24  26
HETATM   26  C   UNL     1      14.804   3.130  93.363  1.00  0.00     0.199 C 
BRANCH  26  27
HETATM   27  C   UNL     1      15.149   2.300  92.119  1.00  0.00     0.145 C 
HETATM   28  C   UNL     1      14.783   3.012  90.822  1.00  0.00     0.042 C 
BRANCH  27  29
HETATM   29  O   UNL     1      16.547   2.012  92.111  1.00  0.00    -0.393 OA
HETATM   30  H   UNL     1      17.022   2.816  91.843  1.00  0.00     0.210 HD
ENDBRANCH  27  29
ENDBRANCH  26  27
BRANCH  26  31
HETATM   31  C   UNL     1      15.978   4.005  93.789  1.00  0.00     0.220 C 
HETATM   32  O   UNL     1      17.072   3.546  94.112  1.00  0.00    -0.278 OA
HETATM   33  N   UNL     1      15.652   5.339  93.803  1.00  0.00    -0.271 NA
HETATM   34  H   UNL     1      14.739   5.743  93.630  1.00  0.00     0.127 HD
HETATM   35  H   UNL     1      15.463   6.178  94.913  1.00  0.00     0.127 HD
ENDBRANCH  26  31
ENDBRANCH  24  26
ENDBRANCH  19  22
ENDBRANCH  15  16
ENDBRANCH  11  14
ENDBRANCH   7   8
ENDBRANCH   2   7
TORSDOF 9
ENDMDL
MODEL 9
REMARK VINA RESULT:      -5.2      1.812     12.225
REMARK  9 active torsions:
REMARK  status: ('A' for Active; 'I' for Inactive)
REMARK    1  A    between atoms: O_2  and  C_17 
REMARK    2  A    between atoms: N_5  and  C_10 
REMARK    3  A    between atoms: N_6  and  C_14 
REMARK       I    between atoms: N_6  and  C_23 
REMARK       I    between atoms: N_7  and  C_22 
REMARK    4  A    between atoms: C_10  and  C_13 
REMARK    5  A    between atoms: C_14  and  C_17 
REMARK    6  A    between atoms: C_14  and  C_22 
REMARK    7  A    between atoms: C_20  and  C_25 
REMARK    8  A    between atoms: C_23  and  C_24 
REMARK    9  A    between atoms: C_28  and  C_31 
ROOT
HETATM    1  O   UNL     1       4.871  14.408  89.815  1.00  0.00    -0.388 OA
HETATM    2  N   UNL     1       3.623  12.212  88.502  1.00  0.00     0.096 N 
HETATM    3  C   UNL     1       3.248  12.604  89.868  1.00  0.00     0.299 C 
HETATM    4  C   UNL     1       5.026  12.566  88.244  1.00  0.00     0.299 C 
HETATM    5  C   UNL     1       3.499  14.097  90.064  1.00  0.00     0.198 C 
HETATM    6  C   UNL     1       5.236  14.058  88.479  1.00  0.00     0.198 C 
ENDROOT
BRANCH   2   7
HETATM    7  C   UNL     1       3.401  10.783  88.294  1.00  0.00     0.311 C 
BRANCH   7   8
HETATM    8  C   UNL     1       4.468   9.946  88.913  1.00  0.00    -0.030 A 
HETATM    9  C   UNL     1       4.830  10.152  90.245  1.00  0.00     0.010 A 
HETATM   10  C   UNL     1       5.831   9.371  90.824  1.00  0.00     0.021 A 
HETATM   11  C   UNL     1       6.467   8.384  90.072  1.00  0.00     0.018 A 
HETATM   12  C   UNL     1       6.106   8.178  88.742  1.00  0.00     0.021 A 
HETATM   13  C   UNL     1       5.106   8.959  88.162  1.00  0.00     0.010 A 
BRANCH  11  14
HETATM   14  C   UNL     1       7.491   7.582  90.667  1.00  0.00    -0.061 C 
HETATM   15  C   UNL     1       8.352   6.907  91.166  1.00  0.00    -0.061 C 
BRANCH  15  16
HETATM   16  C   UNL     1       9.376   6.106  91.760  1.00  0.00     0.018 A 
HETATM   17  C   UNL     1       9.413   5.936  93.144  1.00  0.00     0.022 A 
HETATM   18  C   UNL     1      10.411   5.152  93.723  1.00  0.00     0.018 A 
HETATM   19  C   UNL     1      11.348   4.555  92.905  1.00  0.00     0.032 A 
HETATM   20  C   UNL     1      11.334   4.708  91.535  1.00  0.00     0.018 A 
HETATM   21  C   UNL     1      10.336   5.492  90.955  1.00  0.00     0.022 A 
BRANCH  19  22
HETATM   22  C   UNL     1      12.412   3.722  93.523  1.00  0.00     0.252 C 
HETATM   23  O   UNL     1      12.098   2.697  94.123  1.00  0.00    -0.268 OA
HETATM   24  N   UNL     1      13.714   4.168  93.345  1.00  0.00    -0.342 N 
HETATM   25  H   UNL     1      13.899   5.012  92.815  1.00  0.00     0.163 HD
BRANCH  24  26
HETATM   26  C   UNL     1      14.855   3.457  93.863  1.00  0.00     0.199 C 
BRANCH  26  27
HETATM   27  C   UNL     1      15.121   2.141  93.121  1.00  0.00     0.145 C 
HETATM   28  C   UNL     1      14.999   0.923  94.030  1.00  0.00     0.042 C 
BRANCH  27  29
HETATM   29  O   UNL     1      14.197   2.007  92.041  1.00  0.00    -0.393 OA
HETATM   30  H   UNL     1      14.600   1.439  91.363  1.00  0.00     0.210 HD
ENDBRANCH  27  29
ENDBRANCH  26  27
BRANCH  26  31
HETATM   31  C   UNL     1      16.060   4.389  93.786  1.00  0.00     0.220 C 
HETATM   32  O   UNL     1      15.994   5.591  94.041  1.00  0.00    -0.278 OA
HETATM   33  N   UNL     1      17.194   3.738  93.366  1.00  0.00    -0.271 NA
HETATM   34  H   UNL     1      17.263   2.774  93.063  1.00  0.00     0.127 HD
HETATM   35  H   UNL     1      17.852   3.843  92.130  1.00  0.00     0.127 HD
ENDBRANCH  26  31
ENDBRANCH  24  26
ENDBRANCH  19  22
ENDBRANCH  15  16
ENDBRANCH  11  14
ENDBRANCH   7   8
ENDBRANCH   2   7
TORSDOF 9
ENDMDL
