MODEL 1
REMARK VINA RESULT:      -6.5      0.000      0.000
REMARK  10 active torsions:
REMARK  status: ('A' for Active; 'I' for Inactive)
REMARK    1  A    between atoms: O_2  and  C_16 
REMARK    2  A    between atoms: N_5  and  C_9 
REMARK    3  A    between atoms: N_6  and  C_13 
REMARK       I    between atoms: N_6  and  C_22 
REMARK    4  A    between atoms: C_9  and  C_12 
REMARK    5  A    between atoms: C_13  and  C_16 
REMARK    6  A    between atoms: C_13  and  C_21 
REMARK    7  A    between atoms: C_19  and  C_24 
REMARK    8  A    between atoms: C_22  and  C_23 
REMARK    9  A    between atoms: C_27  and  C_30 
REMARK   10  A    between atoms: N_33  and  S_34 
ROOT
HETATM    1  C   UNL     1       5.457  10.574  89.582  1.00  0.00     0.056 A 
HETATM    2  C   UNL     1       5.054   9.264  89.424  1.00  0.00     0.005 A 
HETATM    3  C   UNL     1       6.724  10.908  90.012  1.00  0.00     0.005 A 
HETATM    4  C   UNL     1       7.246   8.553  90.146  1.00  0.00     0.042 A 
HETATM    5  C   UNL     1       5.958   8.242  89.710  1.00  0.00     0.008 A 
HETATM    6  C   UNL     1       7.629   9.886  90.297  1.00  0.00     0.008 A 
ENDROOT
BRANCH   1   7
HETATM    7  C   UNL     1       4.493  11.663  89.276  1.00  0.00     0.254 C 
HETATM    8  O   UNL     1       4.179  11.874  88.107  1.00  0.00    -0.268 OA
HETATM    9  N   UNL     1       3.994  12.358  90.368  1.00  0.00    -0.337 N 
HETATM   10  HN  UNL     1       4.280  12.111  91.308  1.00  0.00     0.164 HD
BRANCH   9  11
HETATM   11  C   UNL     1       3.034  13.424  90.236  1.00  0.00     0.172 C 
BRANCH  11  12
HETATM   12  C   UNL     1       1.901  13.334  91.266  1.00  0.00     0.136 C 
HETATM   13  C   UNL     1       2.066  12.150  92.213  1.00  0.00     0.034 C 
BRANCH  12  14
HETATM   14  O   UNL     1       1.856  14.538  92.033  1.00  0.00    -0.383 OA
HETATM   15  H   UNL     1       2.709  14.642  92.486  1.00  0.00     0.210 HD
ENDBRANCH  12  14
ENDBRANCH  11  12
BRANCH  11  16
HETATM   16  C   UNL     1       3.786  14.746  90.353  1.00  0.00     0.398 A 
HETATM   17  O   UNL     1       4.840  14.971  89.762  1.00  0.00    -0.136 OA
HETATM   18  N   UNL     1       4.929  15.452  91.201  1.00  0.00     0.142 N 
HETATM   19  HN  UNL     1       5.819  15.735  90.900  1.00  0.00     0.338 HD
BRANCH  18  20
HETATM   20  S   UNL     1       4.377  15.287  92.467  1.00  0.00     0.076 SA
HETATM   21  H   UNL     1       4.139  16.279  93.076  1.00  0.00     0.136 HD
ENDBRANCH  18  20
ENDBRANCH  11  16
ENDBRANCH   9  11
ENDBRANCH   1   7
BRANCH   4  22
HETATM   22  C   UNL     1       8.173   7.505  90.442  1.00  0.00    -0.059 C 
HETATM   23  C   UNL     1       8.951   6.624  90.691  1.00  0.00    -0.059 C 
BRANCH  23  24
HETATM   24  C   UNL     1       9.878   5.574  90.987  1.00  0.00     0.042 A 
HETATM   25  C   UNL     1      10.440   4.829  89.951  1.00  0.00     0.008 A 
HETATM   26  C   UNL     1      11.341   3.805  90.240  1.00  0.00    -0.002 A 
HETATM   27  C   UNL     1      11.682   3.527  91.564  1.00  0.00     0.011 A 
HETATM   28  C   UNL     1      11.119   4.274  92.599  1.00  0.00    -0.002 A 
HETATM   29  C   UNL     1      10.217   5.298  92.310  1.00  0.00     0.008 A 
BRANCH  27  30
HETATM   30  C   UNL     1      12.647   2.434  91.871  1.00  0.00     0.277 C 
BRANCH  30  31
HETATM   31  N   UNL     1      13.654   2.838  92.851  1.00  0.00     0.147 N 
HETATM   32  C   UNL     1      14.601   1.744  93.106  1.00  0.00     0.283 C 
HETATM   33  C   UNL     1      15.648   2.193  94.122  1.00  0.00     0.178 C 
HETATM   34  O   UNL     1      16.338   3.350  93.647  1.00  0.00    -0.350 OA
HETATM   35  C   UNL     1      15.428   4.428  93.426  1.00  0.00     0.178 C 
HETATM   36  C   UNL     1      14.377   4.034  92.395  1.00  0.00     0.283 C 
ENDBRANCH  30  31
ENDBRANCH  27  30
ENDBRANCH  23  24
ENDBRANCH   4  22
TORSDOF 10
ENDMDL
