MODEL 1
REMARK VINA RESULT:      -6.6      0.000      0.000
REMARK  14 active torsions:
REMARK  status: ('A' for Active; 'I' for Inactive)
REMARK    1  A    between atoms: O_2  and  C_18 
REMARK    2  A    between atoms: C_5  and  C_8 
REMARK    3  A    between atoms: C_5  and  O_35 
REMARK    4  A    between atoms: C_5  and  C_36 
REMARK    5  A    between atoms: N_6  and  C_11 
REMARK    6  A    between atoms: N_7  and  C_15 
REMARK       I    between atoms: N_7  and  C_24 
REMARK    7  A    between atoms: C_8  and  C_23 
REMARK    8  A    between atoms: C_11  and  C_14 
REMARK    9  A    between atoms: C_15  and  C_18 
REMARK   10  A    between atoms: C_15  and  C_23 
REMARK   11  A    between atoms: C_21  and  C_26 
REMARK   12  A    between atoms: C_24  and  C_25 
REMARK   13  A    between atoms: C_29  and  C_32 
REMARK   14  A    between atoms: C_36  and  O_39 
ROOT
HETATM    1  O   UNL     1      16.809   3.706  93.848  1.00  0.00    -0.350 OA
HETATM    2  N   UNL     1      14.234   3.069  92.816  1.00  0.00     0.147 N 
HETATM    3  C   UNL     1      15.269   2.040  92.986  1.00  0.00     0.283 C 
HETATM    4  C   UNL     1      14.860   4.376  92.569  1.00  0.00     0.283 C 
HETATM    5  C   UNL     1      16.211   2.437  94.120  1.00  0.00     0.178 C 
HETATM    6  C   UNL     1      15.811   4.718  93.711  1.00  0.00     0.178 C 
ENDROOT
BRANCH   2   7
HETATM    7  C   UNL     1      13.326   2.714  91.727  1.00  0.00     0.277 C 
BRANCH   7   8
HETATM    8  C   UNL     1      12.147   3.624  91.651  1.00  0.00     0.011 A 
HETATM    9  C   UNL     1      11.384   3.872  92.792  1.00  0.00    -0.002 A 
HETATM   10  C   UNL     1      10.280   4.722  92.721  1.00  0.00     0.008 A 
HETATM   11  C   UNL     1       9.942   5.325  91.510  1.00  0.00     0.042 A 
HETATM   12  C   UNL     1      10.704   5.078  90.370  1.00  0.00     0.008 A 
HETATM   13  C   UNL     1      11.807   4.227  90.440  1.00  0.00    -0.002 A 
BRANCH  11  14
HETATM   14  C   UNL     1       8.811   6.198  91.438  1.00  0.00    -0.059 C 
HETATM   15  C   UNL     1       7.860   6.932  91.377  1.00  0.00    -0.059 C 
BRANCH  15  16
HETATM   16  C   UNL     1       6.729   7.804  91.305  1.00  0.00     0.042 A 
HETATM   17  C   UNL     1       6.158   8.301  92.476  1.00  0.00     0.008 A 
HETATM   18  C   UNL     1       5.056   9.153  92.406  1.00  0.00     0.005 A 
HETATM   19  C   UNL     1       4.552   9.491  91.167  1.00  0.00     0.056 A 
HETATM   20  C   UNL     1       5.099   9.012  89.995  1.00  0.00     0.005 A 
HETATM   21  C   UNL     1       6.201   8.159  90.064  1.00  0.00     0.008 A 
BRANCH  19  22
HETATM   22  C   UNL     1       3.378  10.398  91.093  1.00  0.00     0.254 C 
HETATM   23  O   UNL     1       2.309   9.961  90.672  1.00  0.00    -0.268 OA
HETATM   24  N   UNL     1       3.582  11.696  91.540  1.00  0.00    -0.335 N 
HETATM   25  HN  UNL     1       4.487  11.978  91.897  1.00  0.00     0.164 HD
BRANCH  24  26
HETATM   26  C   UNL     1       2.535  12.685  91.553  1.00  0.00     0.169 C 
BRANCH  26  27
HETATM   27  C   UNL     1       2.351  13.335  92.931  1.00  0.00     0.138 C 
HETATM   28  C   UNL     1       3.639  13.351  93.746  1.00  0.00     0.034 C 
BRANCH  27  29
HETATM   29  O   UNL     1       1.889  14.675  92.768  1.00  0.00    -0.383 OA
HETATM   30  H   UNL     1       1.504  14.760  91.879  1.00  0.00     0.210 HD
ENDBRANCH  27  29
ENDBRANCH  26  27
BRANCH  26  31
HETATM   31  C   UNL     1       2.865  13.727  90.489  1.00  0.00     0.194 C 
HETATM   32  O   UNL     1       2.005  14.395  89.918  1.00  0.00    -0.289 OA
BRANCH  31  33
HETATM   33  C   UNL     1       4.212  13.793  90.227  1.00  0.00     0.053 C 
BRANCH  33  34
HETATM   34  C   UNL     1       4.568  13.840  88.872  1.00  0.00     0.220 C 
BRANCH  34  35
HETATM   35  O   UNL     1       5.678  14.399  88.789  1.00  0.00    -0.371 OA
HETATM   36  H   UNL     1       5.502  15.128  89.365  1.00  0.00     0.211 HD
ENDBRANCH  34  35
BRANCH  34  37
HETATM   37  C   UNL     1       4.557  12.581  88.246  1.00  0.00     0.185 C 
HETATM   38  O   UNL     1       5.697  12.423  88.902  1.00  0.00    -0.647 OA
BRANCH  37  39
HETATM   39  O   UNL     1       3.863  11.998  87.468  1.00  0.00    -0.774 OA
HETATM   40  H   UNL     1       4.109  10.891  87.437  1.00  0.00     0.167 HD
ENDBRANCH  37  39
ENDBRANCH  34  37
ENDBRANCH  33  34
ENDBRANCH  31  33
ENDBRANCH  26  31
ENDBRANCH  24  26
ENDBRANCH  19  22
ENDBRANCH  15  16
ENDBRANCH  11  14
ENDBRANCH   7   8
ENDBRANCH   2   7
TORSDOF 14
ENDMDL
