MODEL 1
REMARK VINA RESULT:      -7.0      0.000      0.000
REMARK  10 active torsions:
REMARK  status: ('A' for Active; 'I' for Inactive)
REMARK    1  A    between atoms: O_2  and  C_16 
REMARK    2  A    between atoms: N_5  and  C_9 
REMARK    3  A    between atoms: N_6  and  C_13 
REMARK       I    between atoms: N_6  and  C_22 
REMARK    4  A    between atoms: C_9  and  C_12 
REMARK    5  A    between atoms: C_13  and  C_16 
REMARK    6  A    between atoms: C_13  and  C_21 
REMARK    7  A    between atoms: C_19  and  C_24 
REMARK    8  A    between atoms: C_22  and  C_23 
REMARK    9  A    between atoms: C_27  and  C_30 
REMARK   10  A    between atoms: N_33  and  S_34 
ROOT
HETATM    1  C   UNL     1       5.627  10.895  89.470  1.00  0.00     0.056 A 
HETATM    2  C   UNL     1       6.986  11.129  89.469  1.00  0.00     0.005 A 
HETATM    3  C   UNL     1       5.093   9.655  89.754  1.00  0.00     0.005 A 
HETATM    4  C   UNL     1       7.336   8.812  90.056  1.00  0.00     0.042 A 
HETATM    5  C   UNL     1       7.852  10.075  89.765  1.00  0.00     0.008 A 
HETATM    6  C   UNL     1       5.958   8.601  90.050  1.00  0.00     0.008 A 
ENDROOT
BRANCH   1   7
HETATM    7  C   UNL     1       4.706  12.018  89.156  1.00  0.00     0.254 C 
HETATM    8  O   UNL     1       4.540  12.348  87.985  1.00  0.00    -0.268 OA
HETATM    9  N   UNL     1       4.070  12.604  90.242  1.00  0.00    -0.337 N 
HETATM   10  HN  UNL     1       4.237  12.260  91.181  1.00  0.00     0.164 HD
BRANCH   9  11
HETATM   11  C   UNL     1       3.130  13.686  90.099  1.00  0.00     0.172 C 
BRANCH  11  12
HETATM   12  C   UNL     1       1.922  13.551  91.034  1.00  0.00     0.136 C 
HETATM   13  C   UNL     1       2.076  12.403  92.025  1.00  0.00     0.034 C 
BRANCH  12  14
HETATM   14  O   UNL     1       1.741  14.767  91.759  1.00  0.00    -0.383 OA
HETATM   15  H   UNL     1       1.118  14.599  92.486  1.00  0.00     0.210 HD
ENDBRANCH  12  14
ENDBRANCH  11  12
BRANCH  11  16
HETATM   16  C   UNL     1       3.880  14.990  90.347  1.00  0.00     0.398 A 
HETATM   17  O   UNL     1       4.935  15.274  89.782  1.00  0.00    -0.136 OA
HETATM   18  N   UNL     1       5.021  15.611  91.262  1.00  0.00     0.142 N 
HETATM   19  HN  UNL     1       5.910  15.924  90.992  1.00  0.00     0.338 HD
BRANCH  18  20
HETATM   20  S   UNL     1       4.468  15.321  92.504  1.00  0.00     0.076 SA
HETATM   21  H   UNL     1       3.310  15.556  92.638  1.00  0.00     0.136 HD
ENDBRANCH  18  20
ENDBRANCH  11  16
ENDBRANCH   9  11
ENDBRANCH   1   7
BRANCH   4  22
HETATM   22  C   UNL     1       8.223   7.731  90.357  1.00  0.00    -0.059 C 
HETATM   23  C   UNL     1       8.970   6.823  90.609  1.00  0.00    -0.059 C 
BRANCH  23  24
HETATM   24  C   UNL     1       9.858   5.743  90.910  1.00  0.00     0.042 A 
HETATM   25  C   UNL     1      10.119   5.405  92.237  1.00  0.00     0.008 A 
HETATM   26  C   UNL     1      10.986   4.353  92.531  1.00  0.00    -0.002 A 
HETATM   27  C   UNL     1      11.591   3.638  91.497  1.00  0.00     0.011 A 
HETATM   28  C   UNL     1      11.328   3.977  90.169  1.00  0.00    -0.002 A 
HETATM   29  C   UNL     1      10.461   5.029  89.876  1.00  0.00     0.008 A 
BRANCH  27  30
HETATM   30  C   UNL     1      12.516   2.512  91.812  1.00  0.00     0.277 C 
BRANCH  30  31
HETATM   31  N   UNL     1      13.535   2.886  92.791  1.00  0.00     0.147 N 
HETATM   32  C   UNL     1      14.412   1.746  93.090  1.00  0.00     0.283 C 
HETATM   33  C   UNL     1      15.473   2.163  94.106  1.00  0.00     0.178 C 
HETATM   34  O   UNL     1      16.237   3.261  93.604  1.00  0.00    -0.350 OA
HETATM   35  C   UNL     1      15.395   4.385  93.339  1.00  0.00     0.178 C 
HETATM   36  C   UNL     1      14.332   4.022  92.307  1.00  0.00     0.283 C 
ENDBRANCH  30  31
ENDBRANCH  27  30
ENDBRANCH  23  24
ENDBRANCH   4  22
TORSDOF 10
ENDMDL
MODEL 2
REMARK VINA RESULT:      -6.8      1.567      2.234
REMARK  10 active torsions:
REMARK  status: ('A' for Active; 'I' for Inactive)
REMARK    1  A    between atoms: O_2  and  C_16 
REMARK    2  A    between atoms: N_5  and  C_9 
REMARK    3  A    between atoms: N_6  and  C_13 
REMARK       I    between atoms: N_6  and  C_22 
REMARK    4  A    between atoms: C_9  and  C_12 
REMARK    5  A    between atoms: C_13  and  C_16 
REMARK    6  A    between atoms: C_13  and  C_21 
REMARK    7  A    between atoms: C_19  and  C_24 
REMARK    8  A    between atoms: C_22  and  C_23 
REMARK    9  A    between atoms: C_27  and  C_30 
REMARK   10  A    between atoms: N_33  and  S_34 
ROOT
HETATM    1  C   UNL     1       5.310  10.529  90.956  1.00  0.00     0.056 A 
HETATM    2  C   UNL     1       6.147  10.542  92.052  1.00  0.00     0.005 A 
HETATM    3  C   UNL     1       5.384   9.554  89.984  1.00  0.00     0.005 A 
HETATM    4  C   UNL     1       7.199   8.536  91.211  1.00  0.00     0.042 A 
HETATM    5  C   UNL     1       7.103   9.534  92.181  1.00  0.00     0.008 A 
HETATM    6  C   UNL     1       6.340   8.546  90.112  1.00  0.00     0.008 A 
ENDROOT
BRANCH   1   7
HETATM    7  C   UNL     1       4.290  11.602  90.820  1.00  0.00     0.254 C 
HETATM    8  O   UNL     1       3.277  11.385  90.159  1.00  0.00    -0.268 OA
HETATM    9  N   UNL     1       4.561  12.787  91.489  1.00  0.00    -0.337 N 
HETATM   10  HN  UNL     1       5.408  12.884  92.037  1.00  0.00     0.164 HD
BRANCH   9  11
HETATM   11  C   UNL     1       3.659  13.910  91.474  1.00  0.00     0.172 C 
BRANCH  11  12
HETATM   12  C   UNL     1       3.626  14.626  90.117  1.00  0.00     0.136 C 
HETATM   13  C   UNL     1       4.998  14.687  89.456  1.00  0.00     0.034 C 
BRANCH  12  14
HETATM   14  O   UNL     1       2.720  13.953  89.244  1.00  0.00    -0.383 OA
HETATM   15  H   UNL     1       3.196  13.223  88.814  1.00  0.00     0.210 HD
ENDBRANCH  12  14
ENDBRANCH  11  12
BRANCH  11  16
HETATM   16  C   UNL     1       2.276  13.402  91.866  1.00  0.00     0.398 A 
HETATM   17  O   UNL     1       1.289  14.133  91.937  1.00  0.00    -0.136 OA
HETATM   18  N   UNL     1       1.343  13.199  93.135  1.00  0.00     0.142 N 
HETATM   19  HN  UNL     1       0.505  13.661  93.351  1.00  0.00     0.338 HD
BRANCH  18  20
HETATM   20  S   UNL     1       2.198  12.409  93.895  1.00  0.00     0.076 SA
HETATM   21  H   UNL     1       2.915  11.675  93.295  1.00  0.00     0.136 HD
ENDBRANCH  18  20
ENDBRANCH  11  16
ENDBRANCH   9  11
ENDBRANCH   1   7
BRANCH   4  22
HETATM   22  C   UNL     1       8.181   7.505  91.342  1.00  0.00    -0.059 C 
HETATM   23  C   UNL     1       9.006   6.638  91.451  1.00  0.00    -0.059 C 
BRANCH  23  24
HETATM   24  C   UNL     1       9.990   5.607  91.582  1.00  0.00     0.042 A 
HETATM   25  C   UNL     1      10.645   5.123  90.451  1.00  0.00     0.008 A 
HETATM   26  C   UNL     1      11.602   4.116  90.578  1.00  0.00    -0.002 A 
HETATM   27  C   UNL     1      11.904   3.596  91.837  1.00  0.00     0.011 A 
HETATM   28  C   UNL     1      11.248   4.082  92.968  1.00  0.00    -0.002 A 
HETATM   29  C   UNL     1      10.290   5.088  92.840  1.00  0.00     0.008 A 
BRANCH  27  30
HETATM   30  C   UNL     1      12.929   2.521  91.972  1.00  0.00     0.277 C 
BRANCH  30  31
HETATM   31  N   UNL     1      13.951   2.848  92.965  1.00  0.00     0.147 N 
HETATM   32  C   UNL     1      14.923   1.753  93.090  1.00  0.00     0.283 C 
HETATM   33  C   UNL     1      15.985   2.121  94.123  1.00  0.00     0.178 C 
HETATM   34  O   UNL     1      16.644   3.332  93.749  1.00  0.00    -0.350 OA
HETATM   35  C   UNL     1      15.710   4.409  93.654  1.00  0.00     0.178 C 
HETATM   36  C   UNL     1      14.642   4.096  92.612  1.00  0.00     0.283 C 
ENDBRANCH  30  31
ENDBRANCH  27  30
ENDBRANCH  23  24
ENDBRANCH   4  22
TORSDOF 10
ENDMDL
MODEL 3
REMARK VINA RESULT:      -6.5      1.266      1.594
REMARK  10 active torsions:
REMARK  status: ('A' for Active; 'I' for Inactive)
REMARK    1  A    between atoms: O_2  and  C_16 
REMARK    2  A    between atoms: N_5  and  C_9 
REMARK    3  A    between atoms: N_6  and  C_13 
REMARK       I    between atoms: N_6  and  C_22 
REMARK    4  A    between atoms: C_9  and  C_12 
REMARK    5  A    between atoms: C_13  and  C_16 
REMARK    6  A    between atoms: C_13  and  C_21 
REMARK    7  A    between atoms: C_19  and  C_24 
REMARK    8  A    between atoms: C_22  and  C_23 
REMARK    9  A    between atoms: C_27  and  C_30 
REMARK   10  A    between atoms: N_33  and  S_34 
ROOT
HETATM    1  C   UNL     1       5.090   9.851  90.312  1.00  0.00     0.056 A 
HETATM    2  C   UNL     1       6.358  10.292  90.627  1.00  0.00     0.005 A 
HETATM    3  C   UNL     1       4.784   8.510  90.203  1.00  0.00     0.005 A 
HETATM    4  C   UNL     1       7.081   7.990  90.737  1.00  0.00     0.042 A 
HETATM    5  C   UNL     1       7.366   9.352  90.842  1.00  0.00     0.008 A 
HETATM    6  C   UNL     1       5.791   7.569  90.417  1.00  0.00     0.008 A 
ENDROOT
BRANCH   1   7
HETATM    7  C   UNL     1       4.017  10.852  90.085  1.00  0.00     0.254 C 
HETATM    8  O   UNL     1       3.104  10.588  89.307  1.00  0.00    -0.268 OA
HETATM    9  N   UNL     1       4.122  12.031  90.811  1.00  0.00    -0.337 N 
HETATM   10  HN  UNL     1       4.891  12.170  91.455  1.00  0.00     0.164 HD
BRANCH   9  11
HETATM   11  C   UNL     1       3.147  13.088  90.718  1.00  0.00     0.172 C 
BRANCH  11  12
HETATM   12  C   UNL     1       2.958  13.839  92.043  1.00  0.00     0.136 C 
HETATM   13  C   UNL     1       1.547  13.692  92.601  1.00  0.00     0.034 C 
BRANCH  12  14
HETATM   14  O   UNL     1       3.891  13.350  93.006  1.00  0.00    -0.383 OA
HETATM   15  H   UNL     1       4.421  12.650  92.588  1.00  0.00     0.210 HD
ENDBRANCH  12  14
ENDBRANCH  11  12
BRANCH  11  16
HETATM   16  C   UNL     1       3.587  14.032  89.604  1.00  0.00     0.398 A 
HETATM   17  O   UNL     1       4.134  13.642  88.574  1.00  0.00    -0.136 OA
HETATM   18  N   UNL     1       4.842  14.874  89.115  1.00  0.00     0.142 N 
HETATM   19  HN  UNL     1       5.385  14.738  88.309  1.00  0.00     0.338 HD
BRANCH  18  20
HETATM   20  S   UNL     1       5.047  15.625  90.266  1.00  0.00     0.076 SA
HETATM   21  H   UNL     1       4.318  15.407  91.179  1.00  0.00     0.136 HD
ENDBRANCH  18  20
ENDBRANCH  11  16
ENDBRANCH   9  11
ENDBRANCH   1   7
BRANCH   4  22
HETATM   22  C   UNL     1       8.115   7.027  90.954  1.00  0.00    -0.059 C 
HETATM   23  C   UNL     1       8.983   6.216  91.138  1.00  0.00    -0.059 C 
BRANCH  23  24
HETATM   24  C   UNL     1      10.017   5.251  91.355  1.00  0.00     0.042 A 
HETATM   25  C   UNL     1      10.666   4.669  90.266  1.00  0.00     0.008 A 
HETATM   26  C   UNL     1      11.672   3.726  90.478  1.00  0.00    -0.002 A 
HETATM   27  C   UNL     1      12.030   3.368  91.778  1.00  0.00     0.011 A 
HETATM   28  C   UNL     1      11.380   3.951  92.866  1.00  0.00    -0.002 A 
HETATM   29  C   UNL     1      10.373   4.893  92.654  1.00  0.00     0.008 A 
BRANCH  27  30
HETATM   30  C   UNL     1      13.107   2.362  92.003  1.00  0.00     0.277 C 
BRANCH  30  31
HETATM   31  N   UNL     1      14.060   2.786  93.027  1.00  0.00     0.147 N 
HETATM   32  C   UNL     1      15.226   1.892  93.056  1.00  0.00     0.283 C 
HETATM   33  C   UNL     1      16.211   2.360  94.124  1.00  0.00     0.178 C 
HETATM   34  O   UNL     1      16.620   3.705  93.867  1.00  0.00    -0.350 OA
HETATM   35  C   UNL     1      15.496   4.586  93.868  1.00  0.00     0.178 C 
HETATM   36  C   UNL     1      14.494   4.171  92.796  1.00  0.00     0.283 C 
ENDBRANCH  30  31
ENDBRANCH  27  30
ENDBRANCH  23  24
ENDBRANCH   4  22
TORSDOF 10
ENDMDL
MODEL 4
REMARK VINA RESULT:      -6.4      1.616      1.942
REMARK  10 active torsions:
REMARK  status: ('A' for Active; 'I' for Inactive)
REMARK    1  A    between atoms: O_2  and  C_16 
REMARK    2  A    between atoms: N_5  and  C_9 
REMARK    3  A    between atoms: N_6  and  C_13 
REMARK       I    between atoms: N_6  and  C_22 
REMARK    4  A    between atoms: C_9  and  C_12 
REMARK    5  A    between atoms: C_13  and  C_16 
REMARK    6  A    between atoms: C_13  and  C_21 
REMARK    7  A    between atoms: C_19  and  C_24 
REMARK    8  A    between atoms: C_22  and  C_23 
REMARK    9  A    between atoms: C_27  and  C_30 
REMARK   10  A    between atoms: N_33  and  S_34 
ROOT
HETATM    1  C   UNL     1       4.622   9.927  91.188  1.00  0.00     0.056 A 
HETATM    2  C   UNL     1       4.322   8.587  91.055  1.00  0.00     0.005 A 
HETATM    3  C   UNL     1       5.907  10.374  91.418  1.00  0.00     0.005 A 
HETATM    4  C   UNL     1       6.660   8.079  91.391  1.00  0.00     0.042 A 
HETATM    5  C   UNL     1       5.352   7.652  91.158  1.00  0.00     0.008 A 
HETATM    6  C   UNL     1       6.937   9.440  91.521  1.00  0.00     0.008 A 
ENDROOT
BRANCH   1   7
HETATM    7  C   UNL     1       3.525  10.922  91.077  1.00  0.00     0.254 C 
HETATM    8  O   UNL     1       2.446  10.575  90.603  1.00  0.00    -0.268 OA
HETATM    9  N   UNL     1       3.808  12.195  91.553  1.00  0.00    -0.337 N 
HETATM   10  HN  UNL     1       4.715  12.402  91.955  1.00  0.00     0.164 HD
BRANCH   9  11
HETATM   11  C   UNL     1       2.841  13.262  91.537  1.00  0.00     0.172 C 
BRANCH  11  12
HETATM   12  C   UNL     1       2.982  14.210  92.735  1.00  0.00     0.136 C 
HETATM   13  C   UNL     1       1.807  14.110  93.701  1.00  0.00     0.034 C 
BRANCH  12  14
HETATM   14  O   UNL     1       4.188  13.913  93.439  1.00  0.00    -0.383 OA
HETATM   15  H   UNL     1       4.000  13.943  94.392  1.00  0.00     0.210 HD
ENDBRANCH  12  14
ENDBRANCH  11  12
BRANCH  11  16
HETATM   16  C   UNL     1       2.994  14.010  90.217  1.00  0.00     0.398 A 
HETATM   17  O   UNL     1       2.929  13.455  89.121  1.00  0.00    -0.136 OA
HETATM   18  N   UNL     1       4.093  14.432  89.150  1.00  0.00     0.142 N 
HETATM   19  HN  UNL     1       4.187  14.125  88.223  1.00  0.00     0.338 HD
BRANCH  18  20
HETATM   20  S   UNL     1       4.956  15.112  90.003  1.00  0.00     0.076 SA
HETATM   21  H   UNL     1       4.457  15.874  90.767  1.00  0.00     0.136 HD
ENDBRANCH  18  20
ENDBRANCH  11  16
ENDBRANCH   9  11
ENDBRANCH   1   7
BRANCH   4  22
HETATM   22  C   UNL     1       7.715   7.121  91.498  1.00  0.00    -0.059 C 
HETATM   23  C   UNL     1       8.602   6.314  91.590  1.00  0.00    -0.059 C 
BRANCH  23  24
HETATM   24  C   UNL     1       9.658   5.355  91.698  1.00  0.00     0.042 A 
HETATM   25  C   UNL     1      10.229   5.085  92.942  1.00  0.00     0.008 A 
HETATM   26  C   UNL     1      11.259   4.151  93.047  1.00  0.00    -0.002 A 
HETATM   27  C   UNL     1      11.717   3.486  91.909  1.00  0.00     0.011 A 
HETATM   28  C   UNL     1      11.144   3.756  90.666  1.00  0.00    -0.002 A 
HETATM   29  C   UNL     1      10.114   4.691  90.561  1.00  0.00     0.008 A 
BRANCH  27  30
HETATM   30  C   UNL     1      12.816   2.486  92.023  1.00  0.00     0.277 C 
BRANCH  30  31
HETATM   31  N   UNL     1      13.828   2.880  93.002  1.00  0.00     0.147 N 
HETATM   32  C   UNL     1      14.878   1.857  93.106  1.00  0.00     0.283 C 
HETATM   33  C   UNL     1      15.928   2.296  94.124  1.00  0.00     0.178 C 
HETATM   34  O   UNL     1      16.492   3.553  93.746  1.00  0.00    -0.350 OA
HETATM   35  C   UNL     1      15.482   4.560  93.673  1.00  0.00     0.178 C 
HETATM   36  C   UNL     1      14.422   4.176  92.646  1.00  0.00     0.283 C 
ENDBRANCH  30  31
ENDBRANCH  27  30
ENDBRANCH  23  24
ENDBRANCH   4  22
TORSDOF 10
ENDMDL
MODEL 5
REMARK VINA RESULT:      -5.8      2.596      3.531
REMARK  10 active torsions:
REMARK  status: ('A' for Active; 'I' for Inactive)
REMARK    1  A    between atoms: O_2  and  C_16 
REMARK    2  A    between atoms: N_5  and  C_9 
REMARK    3  A    between atoms: N_6  and  C_13 
REMARK       I    between atoms: N_6  and  C_22 
REMARK    4  A    between atoms: C_9  and  C_12 
REMARK    5  A    between atoms: C_13  and  C_16 
REMARK    6  A    between atoms: C_13  and  C_21 
REMARK    7  A    between atoms: C_19  and  C_24 
REMARK    8  A    between atoms: C_22  and  C_23 
REMARK    9  A    between atoms: C_27  and  C_30 
REMARK   10  A    between atoms: N_33  and  S_34 
ROOT
HETATM    1  C   UNL     1       6.242   7.829  88.277  1.00  0.00     0.056 A 
HETATM    2  C   UNL     1       5.879   6.670  88.931  1.00  0.00     0.005 A 
HETATM    3  C   UNL     1       7.539   8.296  88.273  1.00  0.00     0.005 A 
HETATM    4  C   UNL     1       8.177   6.397  89.622  1.00  0.00     0.042 A 
HETATM    5  C   UNL     1       6.857   5.945  89.612  1.00  0.00     0.008 A 
HETATM    6  C   UNL     1       8.519   7.572  88.953  1.00  0.00     0.008 A 
ENDROOT
BRANCH   1   7
HETATM    7  C   UNL     1       5.200   8.599  87.550  1.00  0.00     0.254 C 
HETATM    8  O   UNL     1       5.381   8.887  86.369  1.00  0.00    -0.268 OA
HETATM    9  N   UNL     1       4.063   8.921  88.278  1.00  0.00    -0.337 N 
HETATM   10  HN  UNL     1       3.972   8.628  89.244  1.00  0.00     0.164 HD
BRANCH   9  11
HETATM   11  C   UNL     1       2.955   9.643  87.707  1.00  0.00     0.172 C 
BRANCH  11  12
HETATM   12  C   UNL     1       1.595   9.046  88.091  1.00  0.00     0.136 C 
HETATM   13  C   UNL     1       1.354   7.684  87.449  1.00  0.00     0.034 C 
BRANCH  12  14
HETATM   14  O   UNL     1       1.517   8.910  89.510  1.00  0.00    -0.383 OA
HETATM   15  H   UNL     1       2.411   8.734  89.849  1.00  0.00     0.210 HD
ENDBRANCH  12  14
ENDBRANCH  11  12
BRANCH  11  16
HETATM   16  C   UNL     1       3.067  11.097  88.153  1.00  0.00     0.398 A 
HETATM   17  O   UNL     1       3.945  11.857  87.746  1.00  0.00    -0.136 OA
HETATM   18  N   UNL     1       3.769  12.008  89.249  1.00  0.00     0.142 N 
HETATM   19  HN  UNL     1       4.463  12.689  89.116  1.00  0.00     0.338 HD
BRANCH  18  20
HETATM   20  S   UNL     1       3.296  11.363  90.386  1.00  0.00     0.076 SA
HETATM   21  H   UNL     1       3.828  10.341  90.676  1.00  0.00     0.136 HD
ENDBRANCH  18  20
ENDBRANCH  11  16
ENDBRANCH   9  11
ENDBRANCH   1   7
BRANCH   4  22
HETATM   22  C   UNL     1       9.179   5.656  90.323  1.00  0.00    -0.059 C 
HETATM   23  C   UNL     1      10.022   5.033  90.912  1.00  0.00    -0.059 C 
BRANCH  23  24
HETATM   24  C   UNL     1      11.024   4.291  91.614  1.00  0.00     0.042 A 
HETATM   25  C   UNL     1      11.134   4.406  92.999  1.00  0.00     0.008 A 
HETATM   26  C   UNL     1      12.112   3.685  93.683  1.00  0.00    -0.002 A 
HETATM   27  C   UNL     1      12.979   2.846  92.981  1.00  0.00     0.011 A 
HETATM   28  C   UNL     1      12.867   2.732  91.595  1.00  0.00    -0.002 A 
HETATM   29  C   UNL     1      11.889   3.454  90.912  1.00  0.00     0.008 A 
BRANCH  27  30
HETATM   30  C   UNL     1      14.023   2.074  93.713  1.00  0.00     0.277 C 
BRANCH  30  31
HETATM   31  N   UNL     1      15.149   2.910  94.124  1.00  0.00     0.147 N 
HETATM   32  C   UNL     1      16.410   2.390  93.578  1.00  0.00     0.283 C 
HETATM   33  C   UNL     1      17.569   3.285  94.011  1.00  0.00     0.178 C 
HETATM   34  O   UNL     1      17.351   4.627  93.572  1.00  0.00    -0.350 OA
HETATM   35  C   UNL     1      16.142   5.151  94.124  1.00  0.00     0.178 C 
HETATM   36  C   UNL     1      14.950   4.302  93.695  1.00  0.00     0.283 C 
ENDBRANCH  30  31
ENDBRANCH  27  30
ENDBRANCH  23  24
ENDBRANCH   4  22
TORSDOF 10
ENDMDL
MODEL 6
REMARK VINA RESULT:      -5.5      3.580     12.340
REMARK  10 active torsions:
REMARK  status: ('A' for Active; 'I' for Inactive)
REMARK    1  A    between atoms: O_2  and  C_16 
REMARK    2  A    between atoms: N_5  and  C_9 
REMARK    3  A    between atoms: N_6  and  C_13 
REMARK       I    between atoms: N_6  and  C_22 
REMARK    4  A    between atoms: C_9  and  C_12 
REMARK    5  A    between atoms: C_13  and  C_16 
REMARK    6  A    between atoms: C_13  and  C_21 
REMARK    7  A    between atoms: C_19  and  C_24 
REMARK    8  A    between atoms: C_22  and  C_23 
REMARK    9  A    between atoms: C_27  and  C_30 
REMARK   10  A    between atoms: N_33  and  S_34 
ROOT
HETATM    1  C   UNL     1      10.091   5.751  89.787  1.00  0.00     0.056 A 
HETATM    2  C   UNL     1       9.565   6.207  88.596  1.00  0.00     0.005 A 
HETATM    3  C   UNL     1       9.734   6.293  91.004  1.00  0.00     0.005 A 
HETATM    4  C   UNL     1       8.264   7.816  89.841  1.00  0.00     0.042 A 
HETATM    5  C   UNL     1       8.641   7.251  88.623  1.00  0.00     0.008 A 
HETATM    6  C   UNL     1       8.810   7.337  91.032  1.00  0.00     0.008 A 
ENDROOT
BRANCH   1   7
HETATM    7  C   UNL     1      11.074   4.637  89.759  1.00  0.00     0.254 C 
HETATM    8  O   UNL     1      11.229   4.001  88.719  1.00  0.00    -0.268 OA
HETATM    9  N   UNL     1      11.775   4.415  90.936  1.00  0.00    -0.337 N 
HETATM   10  HN  UNL     1      11.611   4.997  91.748  1.00  0.00     0.164 HD
BRANCH   9  11
HETATM   11  C   UNL     1      12.778   3.388  91.059  1.00  0.00     0.172 C 
BRANCH  11  12
HETATM   12  C   UNL     1      14.198   3.956  91.178  1.00  0.00     0.136 C 
HETATM   13  C   UNL     1      15.265   2.955  90.751  1.00  0.00     0.034 C 
BRANCH  12  14
HETATM   14  O   UNL     1      14.312   5.128  90.372  1.00  0.00    -0.383 OA
HETATM   15  H   UNL     1      14.900   5.755  90.826  1.00  0.00     0.210 HD
ENDBRANCH  12  14
ENDBRANCH  11  12
BRANCH  11  16
HETATM   16  C   UNL     1      12.421   2.529  92.268  1.00  0.00     0.398 A 
HETATM   17  O   UNL     1      11.311   2.547  92.797  1.00  0.00    -0.136 OA
HETATM   18  N   UNL     1      12.402   2.570  93.856  1.00  0.00     0.142 N 
HETATM   19  HN  UNL     1      11.624   2.559  94.452  1.00  0.00     0.338 HD
BRANCH  18  20
HETATM   20  S   UNL     1      13.741   2.877  94.069  1.00  0.00     0.076 SA
HETATM   21  H   UNL     1      14.471   1.961  94.269  1.00  0.00     0.136 HD
ENDBRANCH  18  20
ENDBRANCH  11  16
ENDBRANCH   9  11
ENDBRANCH   1   7
BRANCH   4  22
HETATM   22  C   UNL     1       7.319   8.889  89.868  1.00  0.00    -0.059 C 
HETATM   23  C   UNL     1       6.524   9.790  89.892  1.00  0.00    -0.059 C 
BRANCH  23  24
HETATM   24  C   UNL     1       5.578  10.864  89.920  1.00  0.00     0.042 A 
HETATM   25  C   UNL     1       4.366  10.707  90.591  1.00  0.00     0.008 A 
HETATM   26  C   UNL     1       3.443  11.752  90.616  1.00  0.00    -0.002 A 
HETATM   27  C   UNL     1       3.735  12.956  89.972  1.00  0.00     0.011 A 
HETATM   28  C   UNL     1       4.948  13.111  89.302  1.00  0.00    -0.002 A 
HETATM   29  C   UNL     1       5.870  12.065  89.276  1.00  0.00     0.008 A 
BRANCH  27  30
HETATM   30  C   UNL     1       2.749  14.073  90.002  1.00  0.00     0.277 C 
BRANCH  30  31
HETATM   31  N   UNL     1       2.750  14.783  91.280  1.00  0.00     0.147 N 
HETATM   32  C   UNL     1       1.856  14.123  92.242  1.00  0.00     0.283 C 
HETATM   33  C   UNL     1       1.882  14.874  93.571  1.00  0.00     0.178 C 
HETATM   34  O   UNL     1       3.214  14.930  94.085  1.00  0.00    -0.350 OA
HETATM   35  C   UNL     1       4.083  15.597  93.169  1.00  0.00     0.178 C 
HETATM   36  C   UNL     1       4.110  14.865  91.831  1.00  0.00     0.283 C 
ENDBRANCH  30  31
ENDBRANCH  27  30
ENDBRANCH  23  24
ENDBRANCH   4  22
TORSDOF 10
ENDMDL
MODEL 7
REMARK VINA RESULT:      -5.4      3.649     12.579
REMARK  10 active torsions:
REMARK  status: ('A' for Active; 'I' for Inactive)
REMARK    1  A    between atoms: O_2  and  C_16 
REMARK    2  A    between atoms: N_5  and  C_9 
REMARK    3  A    between atoms: N_6  and  C_13 
REMARK       I    between atoms: N_6  and  C_22 
REMARK    4  A    between atoms: C_9  and  C_12 
REMARK    5  A    between atoms: C_13  and  C_16 
REMARK    6  A    between atoms: C_13  and  C_21 
REMARK    7  A    between atoms: C_19  and  C_24 
REMARK    8  A    between atoms: C_22  and  C_23 
REMARK    9  A    between atoms: C_27  and  C_30 
REMARK   10  A    between atoms: N_33  and  S_34 
ROOT
HETATM    1  C   UNL     1      10.255   5.027  91.949  1.00  0.00     0.056 A 
HETATM    2  C   UNL     1      10.229   5.594  90.692  1.00  0.00     0.005 A 
HETATM    3  C   UNL     1       9.412   5.438  92.960  1.00  0.00     0.005 A 
HETATM    4  C   UNL     1       8.456   7.053  91.440  1.00  0.00     0.042 A 
HETATM    5  C   UNL     1       9.320   6.619  90.434  1.00  0.00     0.008 A 
HETATM    6  C   UNL     1       8.502   6.463  92.703  1.00  0.00     0.008 A 
ENDROOT
BRANCH   1   7
HETATM    7  C   UNL     1      11.223   3.933  92.223  1.00  0.00     0.254 C 
HETATM    8  O   UNL     1      10.833   2.768  92.205  1.00  0.00    -0.268 OA
HETATM    9  N   UNL     1      12.533   4.326  92.459  1.00  0.00    -0.337 N 
HETATM   10  HN  UNL     1      12.788   5.306  92.433  1.00  0.00     0.164 HD
BRANCH   9  11
HETATM   11  C   UNL     1      13.592   3.382  92.716  1.00  0.00     0.172 C 
BRANCH  11  12
HETATM   12  C   UNL     1      14.189   2.796  91.431  1.00  0.00     0.136 C 
HETATM   13  C   UNL     1      14.142   3.778  90.265  1.00  0.00     0.034 C 
BRANCH  12  14
HETATM   14  O   UNL     1      15.546   2.419  91.664  1.00  0.00    -0.383 OA
HETATM   15  H   UNL     1      16.061   2.622  90.865  1.00  0.00     0.210 HD
ENDBRANCH  12  14
ENDBRANCH  11  12
BRANCH  11  16
HETATM   16  C   UNL     1      14.655   4.090  93.550  1.00  0.00     0.398 A 
HETATM   17  O   UNL     1      15.248   5.095  93.164  1.00  0.00    -0.136 OA
HETATM   18  N   UNL     1      16.224   4.116  93.796  1.00  0.00     0.142 N 
HETATM   19  HN  UNL     1      16.858   4.835  93.587  1.00  0.00     0.338 HD
BRANCH  18  20
HETATM   20  S   UNL     1      16.402   2.776  94.124  1.00  0.00     0.076 SA
HETATM   21  H   UNL     1      17.375   2.248  93.691  1.00  0.00     0.136 HD
ENDBRANCH  18  20
ENDBRANCH  11  16
ENDBRANCH   9  11
ENDBRANCH   1   7
BRANCH   4  22
HETATM   22  C   UNL     1       7.525   8.106  91.176  1.00  0.00    -0.059 C 
HETATM   23  C   UNL     1       6.742   8.991  90.955  1.00  0.00    -0.059 C 
BRANCH  23  24
HETATM   24  C   UNL     1       5.811  10.045  90.692  1.00  0.00     0.042 A 
HETATM   25  C   UNL     1       6.203  11.147  89.932  1.00  0.00     0.008 A 
HETATM   26  C   UNL     1       5.296  12.175  89.678  1.00  0.00    -0.002 A 
HETATM   27  C   UNL     1       3.997  12.101  90.182  1.00  0.00     0.011 A 
HETATM   28  C   UNL     1       3.607  10.998  90.942  1.00  0.00    -0.002 A 
HETATM   29  C   UNL     1       4.514   9.970  91.197  1.00  0.00     0.008 A 
BRANCH  27  30
HETATM   30  C   UNL     1       3.028  13.200  89.907  1.00  0.00     0.277 C 
BRANCH  30  31
HETATM   31  N   UNL     1       2.943  14.156  91.010  1.00  0.00     0.147 N 
HETATM   32  C   UNL     1       1.790  13.857  91.871  1.00  0.00     0.283 C 
HETATM   33  C   UNL     1       1.729  14.861  93.019  1.00  0.00     0.178 C 
HETATM   34  O   UNL     1       2.940  14.825  93.776  1.00  0.00    -0.350 OA
HETATM   35  C   UNL     1       4.063  15.145  92.953  1.00  0.00     0.178 C 
HETATM   36  C   UNL     1       4.180  14.149  91.803  1.00  0.00     0.283 C 
ENDBRANCH  30  31
ENDBRANCH  27  30
ENDBRANCH  23  24
ENDBRANCH   4  22
TORSDOF 10
ENDMDL
MODEL 8
REMARK VINA RESULT:      -5.3      3.665     12.511
REMARK  10 active torsions:
REMARK  status: ('A' for Active; 'I' for Inactive)
REMARK    1  A    between atoms: O_2  and  C_16 
REMARK    2  A    between atoms: N_5  and  C_9 
REMARK    3  A    between atoms: N_6  and  C_13 
REMARK       I    between atoms: N_6  and  C_22 
REMARK    4  A    between atoms: C_9  and  C_12 
REMARK    5  A    between atoms: C_13  and  C_16 
REMARK    6  A    between atoms: C_13  and  C_21 
REMARK    7  A    between atoms: C_19  and  C_24 
REMARK    8  A    between atoms: C_22  and  C_23 
REMARK    9  A    between atoms: C_27  and  C_30 
REMARK   10  A    between atoms: N_33  and  S_34 
ROOT
HETATM    1  C   UNL     1       9.947   5.229  90.589  1.00  0.00     0.056 A 
HETATM    2  C   UNL     1       8.862   5.239  91.440  1.00  0.00     0.005 A 
HETATM    3  C   UNL     1      10.174   6.236  89.675  1.00  0.00     0.005 A 
HETATM    4  C   UNL     1       8.170   7.334  90.456  1.00  0.00     0.042 A 
HETATM    5  C   UNL     1       7.962   6.303  91.373  1.00  0.00     0.008 A 
HETATM    6  C   UNL     1       9.276   7.301  89.607  1.00  0.00     0.008 A 
ENDROOT
BRANCH   1   7
HETATM    7  C   UNL     1      10.906   4.097  90.662  1.00  0.00     0.254 C 
HETATM    8  O   UNL     1      10.796   3.166  89.868  1.00  0.00    -0.268 OA
HETATM    9  N   UNL     1      11.892   4.196  91.634  1.00  0.00    -0.337 N 
HETATM   10  HN  UNL     1      11.935   5.008  92.239  1.00  0.00     0.164 HD
BRANCH   9  11
HETATM   11  C   UNL     1      12.908   3.191  91.813  1.00  0.00     0.172 C 
BRANCH  11  12
HETATM   12  C   UNL     1      14.023   3.281  90.764  1.00  0.00     0.136 C 
HETATM   13  C   UNL     1      14.356   4.720  90.387  1.00  0.00     0.034 C 
BRANCH  12  14
HETATM   14  O   UNL     1      15.201   2.648  91.263  1.00  0.00    -0.383 OA
HETATM   15  H   UNL     1      15.962   3.219  91.063  1.00  0.00     0.210 HD
ENDBRANCH  12  14
ENDBRANCH  11  12
BRANCH  11  16
HETATM   16  C   UNL     1      13.464   3.338  93.226  1.00  0.00     0.398 A 
HETATM   17  O   UNL     1      14.239   4.235  93.551  1.00  0.00    -0.136 OA
HETATM   18  N   UNL     1      14.701   2.905  94.124  1.00  0.00     0.142 N 
HETATM   19  HN  UNL     1      15.404   3.476  94.502  1.00  0.00     0.338 HD
BRANCH  18  20
HETATM   20  S   UNL     1      14.599   1.528  93.963  1.00  0.00     0.076 SA
HETATM   21  H   UNL     1      14.529   1.127  92.847  1.00  0.00     0.136 HD
ENDBRANCH  18  20
ENDBRANCH  11  16
ENDBRANCH   9  11
ENDBRANCH   1   7
BRANCH   4  22
HETATM   22  C   UNL     1       7.246   8.423  90.386  1.00  0.00    -0.059 C 
HETATM   23  C   UNL     1       6.470   9.339  90.326  1.00  0.00    -0.059 C 
BRANCH  23  24
HETATM   24  C   UNL     1       5.545  10.429  90.255  1.00  0.00     0.042 A 
HETATM   25  C   UNL     1       5.881  11.582  89.547  1.00  0.00     0.008 A 
HETATM   26  C   UNL     1       4.981  12.645  89.479  1.00  0.00    -0.002 A 
HETATM   27  C   UNL     1       3.744  12.553  90.118  1.00  0.00     0.011 A 
HETATM   28  C   UNL     1       3.409  11.398  90.825  1.00  0.00    -0.002 A 
HETATM   29  C   UNL     1       4.310  10.335  90.893  1.00  0.00     0.008 A 
BRANCH  27  30
HETATM   30  C   UNL     1       2.781  13.689  90.043  1.00  0.00     0.277 C 
BRANCH  30  31
HETATM   31  N   UNL     1       2.838  14.546  91.225  1.00  0.00     0.147 N 
HETATM   32  C   UNL     1       1.876  14.096  92.241  1.00  0.00     0.283 C 
HETATM   33  C   UNL     1       1.962  14.999  93.470  1.00  0.00     0.178 C 
HETATM   34  O   UNL     1       3.289  14.992  94.000  1.00  0.00    -0.350 OA
HETATM   35  C   UNL     1       4.226  15.457  93.029  1.00  0.00     0.178 C 
HETATM   36  C   UNL     1       4.195  14.567  91.791  1.00  0.00     0.283 C 
ENDBRANCH  30  31
ENDBRANCH  27  30
ENDBRANCH  23  24
ENDBRANCH   4  22
TORSDOF 10
ENDMDL
MODEL 9
REMARK VINA RESULT:      -5.2      3.567     12.518
REMARK  10 active torsions:
REMARK  status: ('A' for Active; 'I' for Inactive)
REMARK    1  A    between atoms: O_2  and  C_16 
REMARK    2  A    between atoms: N_5  and  C_9 
REMARK    3  A    between atoms: N_6  and  C_13 
REMARK       I    between atoms: N_6  and  C_22 
REMARK    4  A    between atoms: C_9  and  C_12 
REMARK    5  A    between atoms: C_13  and  C_16 
REMARK    6  A    between atoms: C_13  and  C_21 
REMARK    7  A    between atoms: C_19  and  C_24 
REMARK    8  A    between atoms: C_22  and  C_23 
REMARK    9  A    between atoms: C_27  and  C_30 
REMARK   10  A    between atoms: N_33  and  S_34 
ROOT
HETATM    1  C   UNL     1      10.715   4.918  92.458  1.00  0.00     0.056 A 
HETATM    2  C   UNL     1       9.928   5.542  93.403  1.00  0.00     0.005 A 
HETATM    3  C   UNL     1      10.625   5.212  91.114  1.00  0.00     0.005 A 
HETATM    4  C   UNL     1       8.898   6.819  91.631  1.00  0.00     0.042 A 
HETATM    5  C   UNL     1       9.008   6.504  92.985  1.00  0.00     0.008 A 
HETATM    6  C   UNL     1       9.705   6.174  90.695  1.00  0.00     0.008 A 
ENDROOT
BRANCH   1   7
HETATM    7  C   UNL     1      11.697   3.895  92.904  1.00  0.00     0.254 C 
HETATM    8  O   UNL     1      11.308   2.753  93.139  1.00  0.00    -0.268 OA
HETATM    9  N   UNL     1      13.015   4.317  92.997  1.00  0.00    -0.337 N 
HETATM   10  HN  UNL     1      13.266   5.270  92.762  1.00  0.00     0.164 HD
BRANCH   9  11
HETATM   11  C   UNL     1      14.086   3.437  93.392  1.00  0.00     0.172 C 
BRANCH  11  12
HETATM   12  C   UNL     1      14.513   2.482  92.270  1.00  0.00     0.136 C 
HETATM   13  C   UNL     1      14.250   1.021  92.615  1.00  0.00     0.034 C 
BRANCH  12  14
HETATM   14  O   UNL     1      13.810   2.809  91.071  1.00  0.00    -0.383 OA
HETATM   15  H   UNL     1      13.480   1.984  90.677  1.00  0.00     0.210 HD
ENDBRANCH  12  14
ENDBRANCH  11  12
BRANCH  11  16
HETATM   16  C   UNL     1      15.252   4.302  93.858  1.00  0.00     0.398 A 
HETATM   17  O   UNL     1      15.649   5.284  93.234  1.00  0.00    -0.136 OA
HETATM   18  N   UNL     1      16.827   4.447  93.707  1.00  0.00     0.142 N 
HETATM   19  HN  UNL     1      17.329   5.170  93.274  1.00  0.00     0.338 HD
BRANCH  18  20
HETATM   20  S   UNL     1      17.191   3.171  94.121  1.00  0.00     0.076 SA
HETATM   21  H   UNL     1      17.734   2.487  93.316  1.00  0.00     0.136 HD
ENDBRANCH  18  20
ENDBRANCH  11  16
ENDBRANCH   9  11
ENDBRANCH   1   7
BRANCH   4  22
HETATM   22  C   UNL     1       7.953   7.803  91.202  1.00  0.00    -0.059 C 
HETATM   23  C   UNL     1       7.158   8.630  90.841  1.00  0.00    -0.059 C 
BRANCH  23  24
HETATM   24  C   UNL     1       6.213   9.614  90.412  1.00  0.00     0.042 A 
HETATM   25  C   UNL     1       6.659  10.815  89.860  1.00  0.00     0.008 A 
HETATM   26  C   UNL     1       5.737  11.775  89.443  1.00  0.00    -0.002 A 
HETATM   27  C   UNL     1       4.369  11.533  89.576  1.00  0.00     0.011 A 
HETATM   28  C   UNL     1       3.925  10.331  90.128  1.00  0.00    -0.002 A 
HETATM   29  C   UNL     1       4.847   9.371  90.545  1.00  0.00     0.008 A 
BRANCH  27  30
HETATM   30  C   UNL     1       3.385  12.559  89.128  1.00  0.00     0.277 C 
BRANCH  30  31
HETATM   31  N   UNL     1       3.379  13.739  89.990  1.00  0.00     0.147 N 
HETATM   32  C   UNL     1       3.004  13.378  91.364  1.00  0.00     0.283 C 
HETATM   33  C   UNL     1       3.016  14.623  92.248  1.00  0.00     0.178 C 
HETATM   34  O   UNL     1       4.307  15.235  92.228  1.00  0.00    -0.350 OA
HETATM   35  C   UNL     1       4.666  15.617  90.899  1.00  0.00     0.178 C 
HETATM   36  C   UNL     1       4.693  14.397  89.984  1.00  0.00     0.283 C 
ENDBRANCH  30  31
ENDBRANCH  27  30
ENDBRANCH  23  24
ENDBRANCH   4  22
TORSDOF 10
ENDMDL
