MODEL 1
REMARK VINA RESULT:      -7.2      0.000      0.000
REMARK  9 active torsions:
REMARK  status: ('A' for Active; 'I' for Inactive)
REMARK    1  A    between atoms: O_2  and  C_17 
REMARK    2  A    between atoms: N_5  and  C_10 
REMARK    3  A    between atoms: N_6  and  C_14 
REMARK       I    between atoms: N_6  and  C_23 
REMARK       I    between atoms: N_7  and  C_22 
REMARK    4  A    between atoms: C_10  and  C_13 
REMARK    5  A    between atoms: C_14  and  C_17 
REMARK    6  A    between atoms: C_14  and  C_22 
REMARK    7  A    between atoms: C_20  and  C_25 
REMARK    8  A    between atoms: C_23  and  C_24 
REMARK    9  A    between atoms: C_28  and  C_31 
ROOT
HETATM    1  O   UNL     1      16.136   3.946  94.121  1.00  0.00    -0.388 OA
HETATM    2  N   UNL     1      14.248   2.581  92.486  1.00  0.00     0.096 N 
HETATM    3  C   UNL     1      14.340   4.047  92.492  1.00  0.00     0.299 C 
HETATM    4  C   UNL     1      14.666   2.045  93.789  1.00  0.00     0.299 C 
HETATM    5  C   UNL     1      15.762   4.475  92.848  1.00  0.00     0.198 C 
HETATM    6  C   UNL     1      16.079   2.519  94.115  1.00  0.00     0.198 C 
ENDROOT
BRANCH   2   7
HETATM    7  C   UNL     1      12.891   2.149  92.158  1.00  0.00     0.311 C 
BRANCH   7   8
HETATM    8  C   UNL     1      11.989   3.295  91.849  1.00  0.00    -0.030 A 
HETATM    9  C   UNL     1      11.892   3.772  90.541  1.00  0.00     0.010 A 
HETATM   10  C   UNL     1      11.050   4.846  90.251  1.00  0.00     0.021 A 
HETATM   11  C   UNL     1      10.305   5.441  91.268  1.00  0.00     0.018 A 
HETATM   12  C   UNL     1      10.401   4.965  92.574  1.00  0.00     0.021 A 
HETATM   13  C   UNL     1      11.243   3.892  92.865  1.00  0.00     0.010 A 
BRANCH  11  14
HETATM   14  C   UNL     1       9.440   6.541  90.970  1.00  0.00    -0.061 C 
HETATM   15  C   UNL     1       8.713   7.465  90.719  1.00  0.00    -0.061 C 
BRANCH  15  16
HETATM   16  C   UNL     1       7.848   8.564  90.422  1.00  0.00     0.018 A 
HETATM   17  C   UNL     1       6.472   8.439  90.612  1.00  0.00     0.022 A 
HETATM   18  C   UNL     1       5.629   9.512  90.324  1.00  0.00     0.018 A 
HETATM   19  C   UNL     1       6.181  10.686  89.856  1.00  0.00     0.032 A 
HETATM   20  C   UNL     1       7.538  10.835  89.660  1.00  0.00     0.018 A 
HETATM   21  C   UNL     1       8.382   9.762  89.947  1.00  0.00     0.022 A 
BRANCH  19  22
HETATM   22  C   UNL     1       5.282  11.829  89.548  1.00  0.00     0.252 C 
HETATM   23  O   UNL     1       4.977  12.054  88.379  1.00  0.00    -0.268 OA
HETATM   24  N   UNL     1       4.828  12.556  90.639  1.00  0.00    -0.342 N 
HETATM   25  H   UNL     1       5.103  12.296  91.579  1.00  0.00     0.163 HD
BRANCH  24  26
HETATM   26  C   UNL     1       3.932  13.677  90.506  1.00  0.00     0.199 C 
BRANCH  26  27
HETATM   27  C   UNL     1       2.992  13.831  91.708  1.00  0.00     0.145 C 
HETATM   28  C   UNL     1       1.897  12.770  91.733  1.00  0.00     0.042 C 
BRANCH  27  29
HETATM   29  O   UNL     1       3.746  13.749  92.917  1.00  0.00    -0.393 OA
HETATM   30  H   UNL     1       4.007  12.822  93.050  1.00  0.00     0.210 HD
ENDBRANCH  27  29
ENDBRANCH  26  27
BRANCH  26  31
HETATM   31  C   UNL     1       4.779  14.928  90.299  1.00  0.00     0.220 C 
HETATM   32  O   UNL     1       5.182  15.625  91.229  1.00  0.00    -0.278 OA
HETATM   33  N   UNL     1       4.996  15.194  88.969  1.00  0.00    -0.271 NA
HETATM   34  H   UNL     1       4.606  14.695  88.179  1.00  0.00     0.127 HD
HETATM   35  H   UNL     1       4.449  16.222  88.185  1.00  0.00     0.127 HD
ENDBRANCH  26  31
ENDBRANCH  24  26
ENDBRANCH  19  22
ENDBRANCH  15  16
ENDBRANCH  11  14
ENDBRANCH   7   8
ENDBRANCH   2   7
TORSDOF 9
ENDMDL
