MODEL 1
REMARK VINA RESULT:      -6.6      0.000      0.000
REMARK  11 active torsions:
REMARK  status: ('A' for Active; 'I' for Inactive)
REMARK    1  A    between atoms: O_2  and  C_18 
REMARK    2  A    between atoms: O_5  and  P_8 
REMARK    3  A    between atoms: N_6  and  C_11 
REMARK    4  A    between atoms: N_7  and  C_15 
REMARK       I    between atoms: N_7  and  C_24 
REMARK    5  A    between atoms: P_8  and  C_23 
REMARK    6  A    between atoms: C_11  and  C_14 
REMARK    7  A    between atoms: C_15  and  C_18 
REMARK    8  A    between atoms: C_15  and  C_23 
REMARK    9  A    between atoms: C_21  and  C_26 
REMARK   10  A    between atoms: C_24  and  C_25 
REMARK   11  A    between atoms: C_29  and  C_32 
ROOT
HETATM    1  O   UNL     1      16.400   3.315  93.794  1.00  0.00     0.000 OA
HETATM    2  N   UNL     1      13.762   2.781  92.867  1.00  0.00     0.000 N 
HETATM    3  C   UNL     1      14.753   1.708  93.023  1.00  0.00     0.000 C 
HETATM    4  C   UNL     1      14.439   4.052  92.571  1.00  0.00     0.000 C 
HETATM    5  C   UNL     1      15.754   2.082  94.115  1.00  0.00     0.000 C 
HETATM    6  C   UNL     1      15.446   4.371  93.671  1.00  0.00     0.000 C 
ENDROOT
BRANCH   2   7
HETATM    7  C   UNL     1      12.799   2.449  91.819  1.00  0.00     0.000 C 
BRANCH   7   8
HETATM    8  C   UNL     1      11.829   3.552  91.568  1.00  0.00     0.000 A 
HETATM    9  C   UNL     1      10.945   3.944  92.575  1.00  0.00     0.000 A 
HETATM   10  C   UNL     1      10.035   4.974  92.341  1.00  0.00     0.000 A 
HETATM   11  C   UNL     1      10.010   5.613  91.102  1.00  0.00     0.000 A 
HETATM   12  C   UNL     1      10.892   5.223  90.096  1.00  0.00     0.000 A 
HETATM   13  C   UNL     1      11.802   4.192  90.329  1.00  0.00     0.000 A 
BRANCH  11  14
HETATM   14  C   UNL     1       9.078   6.672  90.862  1.00  0.00     0.000 C 
HETATM   15  C   UNL     1       8.295   7.562  90.661  1.00  0.00     0.000 C 
BRANCH  15  16
HETATM   16  C   UNL     1       7.362   8.619  90.421  1.00  0.00     0.000 A 
HETATM   17  C   UNL     1       7.484   9.824  91.113  1.00  0.00     0.000 A 
HETATM   18  C   UNL     1       6.576  10.857  90.877  1.00  0.00     0.000 A 
HETATM   19  C   UNL     1       5.569  10.661  89.955  1.00  0.00     0.000 A 
HETATM   20  C   UNL     1       5.428   9.479  89.259  1.00  0.00     0.000 A 
HETATM   21  C   UNL     1       6.335   8.446  89.494  1.00  0.00     0.000 A 
BRANCH  19  22
HETATM   22  C   UNL     1       4.601  11.761  89.705  1.00  0.00     0.000 C 
HETATM   23  O   UNL     1       4.027  11.820  88.621  1.00  0.00     0.000 OA
HETATM   24  N   UNL     1       4.400  12.644  90.757  1.00  0.00     0.000 N 
HETATM   25  HN  UNL     1       4.892  12.518  91.634  1.00  0.00     0.000 HD
BRANCH  24  26
HETATM   26  C   UNL     1       3.476  13.747  90.677  1.00  0.00     0.000 C 
BRANCH  26  27
HETATM   27  C   UNL     1       2.248  13.558  91.578  1.00  0.00     0.000 C 
HETATM   28  C   UNL     1       2.509  12.587  92.724  1.00  0.00     0.000 C 
BRANCH  27  29
HETATM   29  O   UNL     1       1.855  14.819  92.119  1.00  0.00     0.000 OA
HETATM   30  H   UNL     1       1.573  15.391  91.385  1.00  0.00     0.000 HD
ENDBRANCH  27  29
ENDBRANCH  26  27
BRANCH  26  31
HETATM   31  C   UNL     1       4.236  15.019  91.036  1.00  0.00     0.000 C 
HETATM   32  O   UNL     1       4.237  15.502  92.167  1.00  0.00     0.000 OA
BRANCH  31  33
HETATM   33  P   UNL     1       4.874  15.566  89.949  1.00  0.00     0.000 P 
HETATM   34  H   UNL     1       4.112  16.626  89.501  1.00  0.00     0.000 HD
BRANCH  33  35
HETATM   35  O   UNL     1       5.086  14.701  88.867  1.00  0.00     0.000 OA
HETATM   36  H   UNL     1       6.035  14.517  88.973  1.00  0.00     0.000 HD
ENDBRANCH  33  35
ENDBRANCH  31  33
ENDBRANCH  26  31
ENDBRANCH  24  26
ENDBRANCH  19  22
ENDBRANCH  15  16
ENDBRANCH  11  14
ENDBRANCH   7   8
ENDBRANCH   2   7
TORSDOF 11
ENDMDL
MODEL 2
REMARK VINA RESULT:      -5.8      1.473      1.862
REMARK  11 active torsions:
REMARK  status: ('A' for Active; 'I' for Inactive)
REMARK    1  A    between atoms: O_2  and  C_18 
REMARK    2  A    between atoms: O_5  and  P_8 
REMARK    3  A    between atoms: N_6  and  C_11 
REMARK    4  A    between atoms: N_7  and  C_15 
REMARK       I    between atoms: N_7  and  C_24 
REMARK    5  A    between atoms: P_8  and  C_23 
REMARK    6  A    between atoms: C_11  and  C_14 
REMARK    7  A    between atoms: C_15  and  C_18 
REMARK    8  A    between atoms: C_15  and  C_23 
REMARK    9  A    between atoms: C_21  and  C_26 
REMARK   10  A    between atoms: C_24  and  C_25 
REMARK   11  A    between atoms: C_29  and  C_32 
ROOT
HETATM    1  O   UNL     1      16.361   2.970  93.900  1.00  0.00     0.000 OA
HETATM    2  N   UNL     1      13.828   3.050  92.602  1.00  0.00     0.000 N 
HETATM    3  C   UNL     1      14.499   1.777  92.900  1.00  0.00     0.000 C 
HETATM    4  C   UNL     1      14.827   4.111  92.407  1.00  0.00     0.000 C 
HETATM    5  C   UNL     1      15.397   1.939  94.124  1.00  0.00     0.000 C 
HETATM    6  C   UNL     1      15.717   4.218  93.641  1.00  0.00     0.000 C 
ENDROOT
BRANCH   2   7
HETATM    7  C   UNL     1      12.970   2.921  91.426  1.00  0.00     0.000 C 
BRANCH   7   8
HETATM    8  C   UNL     1      11.818   3.867  91.457  1.00  0.00     0.000 A 
HETATM    9  C   UNL     1      11.251   4.234  92.677  1.00  0.00     0.000 A 
HETATM   10  C   UNL     1      10.172   5.117  92.707  1.00  0.00     0.000 A 
HETATM   11  C   UNL     1       9.662   5.634  91.516  1.00  0.00     0.000 A 
HETATM   12  C   UNL     1      10.228   5.269  90.297  1.00  0.00     0.000 A 
HETATM   13  C   UNL     1      11.307   4.385  90.267  1.00  0.00     0.000 A 
BRANCH  11  14
HETATM   14  C   UNL     1       8.557   6.542  91.547  1.00  0.00     0.000 C 
HETATM   15  C   UNL     1       7.627   7.304  91.572  1.00  0.00     0.000 C 
BRANCH  15  16
HETATM   16  C   UNL     1       6.522   8.211  91.603  1.00  0.00     0.000 A 
HETATM   17  C   UNL     1       5.247   7.767  91.250  1.00  0.00     0.000 A 
HETATM   18  C   UNL     1       4.169   8.650  91.284  1.00  0.00     0.000 A 
HETATM   19  C   UNL     1       4.388   9.956  91.669  1.00  0.00     0.000 A 
HETATM   20  C   UNL     1       5.638  10.419  92.022  1.00  0.00     0.000 A 
HETATM   21  C   UNL     1       6.718   9.537  91.989  1.00  0.00     0.000 A 
BRANCH  19  22
HETATM   22  C   UNL     1       3.239  10.898  91.702  1.00  0.00     0.000 C 
HETATM   23  O   UNL     1       2.105  10.468  91.503  1.00  0.00     0.000 OA
HETATM   24  N   UNL     1       3.545  12.221  91.987  1.00  0.00     0.000 N 
HETATM   25  HN  UNL     1       4.503  12.499  92.165  1.00  0.00     0.000 HD
BRANCH  24  26
HETATM   26  C   UNL     1       2.538  13.248  92.078  1.00  0.00     0.000 C 
BRANCH  26  27
HETATM   27  C   UNL     1       2.803  14.239  93.219  1.00  0.00     0.000 C 
HETATM   28  C   UNL     1       4.187  14.065  93.834  1.00  0.00     0.000 C 
BRANCH  27  29
HETATM   29  O   UNL     1       2.676  15.574  92.730  1.00  0.00     0.000 OA
HETATM   30  H   UNL     1       1.768  15.876  92.900  1.00  0.00     0.000 HD
ENDBRANCH  27  29
ENDBRANCH  26  27
BRANCH  26  31
HETATM   31  C   UNL     1       2.474  13.958  90.730  1.00  0.00     0.000 C 
HETATM   32  O   UNL     1       1.458  14.509  90.311  1.00  0.00     0.000 OA
BRANCH  31  33
HETATM   33  P   UNL     1       3.660  13.873  90.041  1.00  0.00     0.000 P 
HETATM   34  H   UNL     1       4.008  15.146  89.638  1.00  0.00     0.000 HD
BRANCH  33  35
HETATM   35  O   UNL     1       3.648  13.051  88.905  1.00  0.00     0.000 OA
HETATM   36  H   UNL     1       4.304  13.508  88.353  1.00  0.00     0.000 HD
ENDBRANCH  33  35
ENDBRANCH  31  33
ENDBRANCH  26  31
ENDBRANCH  24  26
ENDBRANCH  19  22
ENDBRANCH  15  16
ENDBRANCH  11  14
ENDBRANCH   7   8
ENDBRANCH   2   7
TORSDOF 11
ENDMDL
MODEL 3
REMARK VINA RESULT:      -5.5      3.576     12.363
REMARK  11 active torsions:
REMARK  status: ('A' for Active; 'I' for Inactive)
REMARK    1  A    between atoms: O_2  and  C_18 
REMARK    2  A    between atoms: O_5  and  P_8 
REMARK    3  A    between atoms: N_6  and  C_11 
REMARK    4  A    between atoms: N_7  and  C_15 
REMARK       I    between atoms: N_7  and  C_24 
REMARK    5  A    between atoms: P_8  and  C_23 
REMARK    6  A    between atoms: C_11  and  C_14 
REMARK    7  A    between atoms: C_15  and  C_18 
REMARK    8  A    between atoms: C_15  and  C_23 
REMARK    9  A    between atoms: C_21  and  C_26 
REMARK   10  A    between atoms: C_24  and  C_25 
REMARK   11  A    between atoms: C_29  and  C_32 
ROOT
HETATM    1  O   UNL     1       3.146  14.909  94.056  1.00  0.00     0.000 OA
HETATM    2  N   UNL     1       2.724  14.783  91.244  1.00  0.00     0.000 N 
HETATM    3  C   UNL     1       1.846  14.073  92.185  1.00  0.00     0.000 C 
HETATM    4  C   UNL     1       4.072  14.914  91.814  1.00  0.00     0.000 C 
HETATM    5  C   UNL     1       1.824  14.805  93.524  1.00  0.00     0.000 C 
HETATM    6  C   UNL     1       3.998  15.625  93.161  1.00  0.00     0.000 C 
ENDROOT
BRANCH   2   7
HETATM    7  C   UNL     1       2.769  14.093  89.956  1.00  0.00     0.000 C 
BRANCH   7   8
HETATM    8  C   UNL     1       3.761  12.980  89.942  1.00  0.00     0.000 A 
HETATM    9  C   UNL     1       4.978  13.140  89.278  1.00  0.00     0.000 A 
HETATM   10  C   UNL     1       5.906  12.099  89.263  1.00  0.00     0.000 A 
HETATM   11  C   UNL     1       5.617  10.900  89.913  1.00  0.00     0.000 A 
HETATM   12  C   UNL     1       4.403  10.739  90.577  1.00  0.00     0.000 A 
HETATM   13  C   UNL     1       3.474  11.780  90.592  1.00  0.00     0.000 A 
BRANCH  11  14
HETATM   14  C   UNL     1       6.570   9.833  89.899  1.00  0.00     0.000 C 
HETATM   15  C   UNL     1       7.372   8.936  89.888  1.00  0.00     0.000 C 
BRANCH  15  16
HETATM   16  C   UNL     1       8.324   7.870  89.875  1.00  0.00     0.000 A 
HETATM   17  C   UNL     1       8.713   7.269  91.072  1.00  0.00     0.000 A 
HETATM   18  C   UNL     1       9.640   6.227  91.059  1.00  0.00     0.000 A 
HETATM   19  C   UNL     1      10.156   5.809  89.850  1.00  0.00     0.000 A 
HETATM   20  C   UNL     1       9.787   6.386  88.653  1.00  0.00     0.000 A 
HETATM   21  C   UNL     1       8.861   7.429  88.665  1.00  0.00     0.000 A 
BRANCH  19  22
HETATM   22  C   UNL     1      11.145   4.699  89.837  1.00  0.00     0.000 C 
HETATM   23  O   UNL     1      11.287   4.035  88.813  1.00  0.00     0.000 OA
HETATM   24  N   UNL     1      11.866   4.514  91.008  1.00  0.00     0.000 N 
HETATM   25  HN  UNL     1      11.712   5.119  91.806  1.00  0.00     0.000 HD
BRANCH  24  26
HETATM   26  C   UNL     1      12.877   3.497  91.143  1.00  0.00     0.000 C 
BRANCH  26  27
HETATM   27  C   UNL     1      14.280   4.079  91.361  1.00  0.00     0.000 C 
HETATM   28  C   UNL     1      15.379   3.039  91.175  1.00  0.00     0.000 C 
BRANCH  27  29
HETATM   29  O   UNL     1      14.498   5.152  90.446  1.00  0.00     0.000 OA
HETATM   30  H   UNL     1      15.399   5.070  90.089  1.00  0.00     0.000 HD
ENDBRANCH  27  29
ENDBRANCH  26  27
BRANCH  26  31
HETATM   31  C   UNL     1      12.470   2.585  92.296  1.00  0.00     0.000 C 
HETATM   32  O   UNL     1      12.057   1.439  92.129  1.00  0.00     0.000 OA
BRANCH  31  33
HETATM   33  P   UNL     1      12.584   3.208  93.515  1.00  0.00     0.000 P 
HETATM   34  H   UNL     1      12.398   2.254  94.496  1.00  0.00     0.000 HD
BRANCH  33  35
HETATM   35  O   UNL     1      11.679   4.252  93.754  1.00  0.00     0.000 OA
HETATM   36  H   UNL     1      10.838   3.764  93.725  1.00  0.00     0.000 HD
ENDBRANCH  33  35
ENDBRANCH  31  33
ENDBRANCH  26  31
ENDBRANCH  24  26
ENDBRANCH  19  22
ENDBRANCH  15  16
ENDBRANCH  11  14
ENDBRANCH   7   8
ENDBRANCH   2   7
TORSDOF 11
ENDMDL
MODEL 4
REMARK VINA RESULT:      -4.5      3.501     12.568
REMARK  11 active torsions:
REMARK  status: ('A' for Active; 'I' for Inactive)
REMARK    1  A    between atoms: O_2  and  C_18 
REMARK    2  A    between atoms: O_5  and  P_8 
REMARK    3  A    between atoms: N_6  and  C_11 
REMARK    4  A    between atoms: N_7  and  C_15 
REMARK       I    between atoms: N_7  and  C_24 
REMARK    5  A    between atoms: P_8  and  C_23 
REMARK    6  A    between atoms: C_11  and  C_14 
REMARK    7  A    between atoms: C_15  and  C_18 
REMARK    8  A    between atoms: C_15  and  C_23 
REMARK    9  A    between atoms: C_21  and  C_26 
REMARK   10  A    between atoms: C_24  and  C_25 
REMARK   11  A    between atoms: C_29  and  C_32 
ROOT
HETATM    1  O   UNL     1       3.615  14.457  92.379  1.00  0.00     0.000 OA
HETATM    2  N   UNL     1       3.593  13.318  89.771  1.00  0.00     0.000 N 
HETATM    3  C   UNL     1       2.707  12.821  90.833  1.00  0.00     0.000 C 
HETATM    4  C   UNL     1       4.821  13.872  90.357  1.00  0.00     0.000 C 
HETATM    5  C   UNL     1       2.403  13.946  91.820  1.00  0.00     0.000 C 
HETATM    6  C   UNL     1       4.469  14.970  91.355  1.00  0.00     0.000 C 
ENDROOT
BRANCH   2   7
HETATM    7  C   UNL     1       3.906  12.253  88.818  1.00  0.00     0.000 C 
BRANCH   7   8
HETATM    8  C   UNL     1       4.879  11.267  89.369  1.00  0.00     0.000 A 
HETATM    9  C   UNL     1       4.419  10.084  89.949  1.00  0.00     0.000 A 
HETATM   10  C   UNL     1       5.327   9.161  90.467  1.00  0.00     0.000 A 
HETATM   11  C   UNL     1       6.696   9.421  90.402  1.00  0.00     0.000 A 
HETATM   12  C   UNL     1       7.157  10.601  89.822  1.00  0.00     0.000 A 
HETATM   13  C   UNL     1       6.248  11.525  89.306  1.00  0.00     0.000 A 
BRANCH  11  14
HETATM   14  C   UNL     1       7.628   8.473  90.930  1.00  0.00     0.000 C 
HETATM   15  C   UNL     1       8.412   7.676  91.374  1.00  0.00     0.000 C 
BRANCH  15  16
HETATM   16  C   UNL     1       9.344   6.730  91.902  1.00  0.00     0.000 A 
HETATM   17  C   UNL     1       9.896   6.928  93.168  1.00  0.00     0.000 A 
HETATM   18  C   UNL     1      10.804   6.003  93.684  1.00  0.00     0.000 A 
HETATM   19  C   UNL     1      11.138   4.901  92.924  1.00  0.00     0.000 A 
HETATM   20  C   UNL     1      10.607   4.683  91.670  1.00  0.00     0.000 A 
HETATM   21  C   UNL     1       9.699   5.608  91.153  1.00  0.00     0.000 A 
BRANCH  19  22
HETATM   22  C   UNL     1      12.106   3.917  93.474  1.00  0.00     0.000 C 
HETATM   23  O   UNL     1      11.684   2.910  94.037  1.00  0.00     0.000 OA
HETATM   24  N   UNL     1      13.449   4.212  93.280  1.00  0.00     0.000 N 
HETATM   25  HN  UNL     1      13.723   5.051  92.783  1.00  0.00     0.000 HD
BRANCH  24  26
HETATM   26  C   UNL     1      14.506   3.344  93.733  1.00  0.00     0.000 C 
BRANCH  26  27
HETATM   27  C   UNL     1      14.667   2.097  92.855  1.00  0.00     0.000 C 
HETATM   28  C   UNL     1      14.636   0.805  93.665  1.00  0.00     0.000 C 
BRANCH  27  29
HETATM   29  O   UNL     1      13.623   2.059  91.883  1.00  0.00     0.000 OA
HETATM   30  H   UNL     1      13.451   1.130  91.657  1.00  0.00     0.000 HD
ENDBRANCH  27  29
ENDBRANCH  26  27
BRANCH  26  31
HETATM   31  C   UNL     1      15.793   4.162  93.776  1.00  0.00     0.000 C 
HETATM   32  O   UNL     1      15.837   5.358  93.494  1.00  0.00     0.000 OA
BRANCH  31  33
HETATM   33  P   UNL     1      16.882   3.399  94.124  1.00  0.00     0.000 P 
HETATM   34  H   UNL     1      17.630   4.119  95.033  1.00  0.00     0.000 HD
BRANCH  33  35
HETATM   35  O   UNL     1      17.728   3.027  93.069  1.00  0.00     0.000 OA
HETATM   36  H   UNL     1      17.731   3.849  92.550  1.00  0.00     0.000 HD
ENDBRANCH  33  35
ENDBRANCH  31  33
ENDBRANCH  26  31
ENDBRANCH  24  26
ENDBRANCH  19  22
ENDBRANCH  15  16
ENDBRANCH  11  14
ENDBRANCH   7   8
ENDBRANCH   2   7
TORSDOF 11
ENDMDL
MODEL 5
REMARK VINA RESULT:      -4.5      1.532      2.026
REMARK  11 active torsions:
REMARK  status: ('A' for Active; 'I' for Inactive)
REMARK    1  A    between atoms: O_2  and  C_18 
REMARK    2  A    between atoms: O_5  and  P_8 
REMARK    3  A    between atoms: N_6  and  C_11 
REMARK    4  A    between atoms: N_7  and  C_15 
REMARK       I    between atoms: N_7  and  C_24 
REMARK    5  A    between atoms: P_8  and  C_23 
REMARK    6  A    between atoms: C_11  and  C_14 
REMARK    7  A    between atoms: C_15  and  C_18 
REMARK    8  A    between atoms: C_15  and  C_23 
REMARK    9  A    between atoms: C_21  and  C_26 
REMARK   10  A    between atoms: C_24  and  C_25 
REMARK   11  A    between atoms: C_29  and  C_32 
ROOT
HETATM    1  O   UNL     1      16.487   2.542  93.199  1.00  0.00     0.000 OA
HETATM    2  N   UNL     1      13.656   2.760  92.998  1.00  0.00     0.000 N 
HETATM    3  C   UNL     1      14.302   1.510  93.421  1.00  0.00     0.000 C 
HETATM    4  C   UNL     1      14.550   3.512  92.106  1.00  0.00     0.000 C 
HETATM    5  C   UNL     1      15.638   1.819  94.092  1.00  0.00     0.000 C 
HETATM    6  C   UNL     1      15.880   3.774  92.807  1.00  0.00     0.000 C 
ENDROOT
BRANCH   2   7
HETATM    7  C   UNL     1      12.379   2.487  92.342  1.00  0.00     0.000 C 
BRANCH   7   8
HETATM    8  C   UNL     1      11.448   3.650  92.403  1.00  0.00     0.000 A 
HETATM    9  C   UNL     1      10.661   3.972  91.297  1.00  0.00     0.000 A 
HETATM   10  C   UNL     1       9.792   5.061  91.352  1.00  0.00     0.000 A 
HETATM   11  C   UNL     1       9.709   5.827  92.515  1.00  0.00     0.000 A 
HETATM   12  C   UNL     1      10.494   5.507  93.620  1.00  0.00     0.000 A 
HETATM   13  C   UNL     1      11.364   4.418  93.565  1.00  0.00     0.000 A 
BRANCH  11  14
HETATM   14  C   UNL     1       8.816   6.943  92.572  1.00  0.00     0.000 C 
HETATM   15  C   UNL     1       8.066   7.882  92.620  1.00  0.00     0.000 C 
BRANCH  15  16
HETATM   16  C   UNL     1       7.173   8.997  92.676  1.00  0.00     0.000 A 
HETATM   17  C   UNL     1       7.412  10.035  93.577  1.00  0.00     0.000 A 
HETATM   18  C   UNL     1       6.542  11.125  93.630  1.00  0.00     0.000 A 
HETATM   19  C   UNL     1       5.455  11.152  92.782  1.00  0.00     0.000 A 
HETATM   20  C   UNL     1       5.197  10.137  91.884  1.00  0.00     0.000 A 
HETATM   21  C   UNL     1       6.066   9.048  91.830  1.00  0.00     0.000 A 
BRANCH  19  22
HETATM   22  C   UNL     1       4.528  12.311  92.840  1.00  0.00     0.000 C 
HETATM   23  O   UNL     1       4.387  12.914  93.902  1.00  0.00     0.000 OA
HETATM   24  N   UNL     1       3.896  12.645  91.650  1.00  0.00     0.000 N 
HETATM   25  HN  UNL     1       4.081  12.116  90.806  1.00  0.00     0.000 HD
BRANCH  24  26
HETATM   26  C   UNL     1       2.988  13.758  91.540  1.00  0.00     0.000 C 
BRANCH  26  27
HETATM   27  C   UNL     1       1.758  13.612  92.445  1.00  0.00     0.000 C 
HETATM   28  C   UNL     1       1.328  12.160  92.617  1.00  0.00     0.000 C 
BRANCH  27  29
HETATM   29  O   UNL     1       2.042  14.166  93.730  1.00  0.00     0.000 OA
HETATM   30  H   UNL     1       3.006  14.171  93.853  1.00  0.00     0.000 HD
ENDBRANCH  27  29
ENDBRANCH  26  27
BRANCH  26  31
HETATM   31  C   UNL     1       3.767  15.029  91.864  1.00  0.00     0.000 C 
HETATM   32  O   UNL     1       3.661  15.625  92.934  1.00  0.00     0.000 OA
BRANCH  31  33
HETATM   33  P   UNL     1       4.555  15.435  90.815  1.00  0.00     0.000 P 
HETATM   34  H   UNL     1       4.420  16.803  90.690  1.00  0.00     0.000 HD
BRANCH  33  35
HETATM   35  O   UNL     1       4.260  14.859  89.571  1.00  0.00     0.000 OA
HETATM   36  H   UNL     1       5.011  14.248  89.480  1.00  0.00     0.000 HD
ENDBRANCH  33  35
ENDBRANCH  31  33
ENDBRANCH  26  31
ENDBRANCH  24  26
ENDBRANCH  19  22
ENDBRANCH  15  16
ENDBRANCH  11  14
ENDBRANCH   7   8
ENDBRANCH   2   7
TORSDOF 11
ENDMDL
MODEL 6
REMARK VINA RESULT:      -4.5      3.779     12.664
REMARK  11 active torsions:
REMARK  status: ('A' for Active; 'I' for Inactive)
REMARK    1  A    between atoms: O_2  and  C_18 
REMARK    2  A    between atoms: O_5  and  P_8 
REMARK    3  A    between atoms: N_6  and  C_11 
REMARK    4  A    between atoms: N_7  and  C_15 
REMARK       I    between atoms: N_7  and  C_24 
REMARK    5  A    between atoms: P_8  and  C_23 
REMARK    6  A    between atoms: C_11  and  C_14 
REMARK    7  A    between atoms: C_15  and  C_18 
REMARK    8  A    between atoms: C_15  and  C_23 
REMARK    9  A    between atoms: C_21  and  C_26 
REMARK   10  A    between atoms: C_24  and  C_25 
REMARK   11  A    between atoms: C_29  and  C_32 
ROOT
HETATM    1  O   UNL     1       3.703  14.639  90.103  1.00  0.00     0.000 OA
HETATM    2  N   UNL     1       2.770  13.818  92.664  1.00  0.00     0.000 N 
HETATM    3  C   UNL     1       4.085  14.449  92.493  1.00  0.00     0.000 C 
HETATM    4  C   UNL     1       2.395  13.095  91.441  1.00  0.00     0.000 C 
HETATM    5  C   UNL     1       4.062  15.372  91.276  1.00  0.00     0.000 C 
HETATM    6  C   UNL     1       2.412  14.048  90.250  1.00  0.00     0.000 C 
ENDROOT
BRANCH   2   7
HETATM    7  C   UNL     1       2.772  12.921  93.818  1.00  0.00     0.000 C 
BRANCH   7   8
HETATM    8  C   UNL     1       3.783  11.833  93.690  1.00  0.00     0.000 A 
HETATM    9  C   UNL     1       3.416  10.601  93.146  1.00  0.00     0.000 A 
HETATM   10  C   UNL     1       4.360   9.582  93.027  1.00  0.00     0.000 A 
HETATM   11  C   UNL     1       5.672   9.796  93.450  1.00  0.00     0.000 A 
HETATM   12  C   UNL     1       6.040  11.025  93.993  1.00  0.00     0.000 A 
HETATM   13  C   UNL     1       5.096  12.044  94.113  1.00  0.00     0.000 A 
BRANCH  11  14
HETATM   14  C   UNL     1       6.641   8.750  93.327  1.00  0.00     0.000 C 
HETATM   15  C   UNL     1       7.455   7.872  93.222  1.00  0.00     0.000 C 
BRANCH  15  16
HETATM   16  C   UNL     1       8.424   6.827  93.098  1.00  0.00     0.000 A 
HETATM   17  C   UNL     1       9.675   6.962  93.700  1.00  0.00     0.000 A 
HETATM   18  C   UNL     1      10.618   5.942  93.581  1.00  0.00     0.000 A 
HETATM   19  C   UNL     1      10.290   4.811  92.863  1.00  0.00     0.000 A 
HETATM   20  C   UNL     1       9.061   4.654  92.258  1.00  0.00     0.000 A 
HETATM   21  C   UNL     1       8.117   5.674  92.376  1.00  0.00     0.000 A 
BRANCH  19  22
HETATM   22  C   UNL     1      11.297   3.725  92.734  1.00  0.00     0.000 C 
HETATM   23  O   UNL     1      10.921   2.590  92.454  1.00  0.00     0.000 OA
HETATM   24  N   UNL     1      12.620   4.098  92.924  1.00  0.00     0.000 N 
HETATM   25  HN  UNL     1      12.858   5.061  93.128  1.00  0.00     0.000 HD
BRANCH  24  26
HETATM   26  C   UNL     1      13.712   3.165  92.808  1.00  0.00     0.000 C 
BRANCH  26  27
HETATM   27  C   UNL     1      14.193   2.990  91.362  1.00  0.00     0.000 C 
HETATM   28  C   UNL     1      13.659   4.075  90.434  1.00  0.00     0.000 C 
BRANCH  27  29
HETATM   29  O   UNL     1      15.620   3.011  91.328  1.00  0.00     0.000 OA
HETATM   30  H   UNL     1      15.903   3.860  90.949  1.00  0.00     0.000 HD
ENDBRANCH  27  29
ENDBRANCH  26  27
BRANCH  26  31
HETATM   31  C   UNL     1      14.840   3.653  93.712  1.00  0.00     0.000 C 
HETATM   32  O   UNL     1      15.002   4.838  93.999  1.00  0.00     0.000 OA
BRANCH  31  33
HETATM   33  P   UNL     1      15.656   2.628  94.124  1.00  0.00     0.000 P 
HETATM   34  H   UNL     1      15.355   2.352  95.442  1.00  0.00     0.000 HD
BRANCH  33  35
HETATM   35  O   UNL     1      17.034   2.873  94.040  1.00  0.00     0.000 OA
HETATM   36  H   UNL     1      17.121   3.049  93.087  1.00  0.00     0.000 HD
ENDBRANCH  33  35
ENDBRANCH  31  33
ENDBRANCH  26  31
ENDBRANCH  24  26
ENDBRANCH  19  22
ENDBRANCH  15  16
ENDBRANCH  11  14
ENDBRANCH   7   8
ENDBRANCH   2   7
TORSDOF 11
ENDMDL
MODEL 7
REMARK VINA RESULT:      -4.1      2.017      2.795
REMARK  11 active torsions:
REMARK  status: ('A' for Active; 'I' for Inactive)
REMARK    1  A    between atoms: O_2  and  C_18 
REMARK    2  A    between atoms: O_5  and  P_8 
REMARK    3  A    between atoms: N_6  and  C_11 
REMARK    4  A    between atoms: N_7  and  C_15 
REMARK       I    between atoms: N_7  and  C_24 
REMARK    5  A    between atoms: P_8  and  C_23 
REMARK    6  A    between atoms: C_11  and  C_14 
REMARK    7  A    between atoms: C_15  and  C_18 
REMARK    8  A    between atoms: C_15  and  C_23 
REMARK    9  A    between atoms: C_21  and  C_26 
REMARK   10  A    between atoms: C_24  and  C_25 
REMARK   11  A    between atoms: C_29  and  C_32 
ROOT
HETATM    1  O   UNL     1      16.179   2.645  91.583  1.00  0.00     0.000 OA
HETATM    2  N   UNL     1      13.615   3.080  92.741  1.00  0.00     0.000 N 
HETATM    3  C   UNL     1      14.647   2.295  93.432  1.00  0.00     0.000 C 
HETATM    4  C   UNL     1      13.794   2.976  91.286  1.00  0.00     0.000 C 
HETATM    5  C   UNL     1      16.032   2.767  93.000  1.00  0.00     0.000 C 
HETATM    6  C   UNL     1      15.199   3.431  90.903  1.00  0.00     0.000 C 
ENDROOT
BRANCH   2   7
HETATM    7  C   UNL     1      12.278   2.638  93.133  1.00  0.00     0.000 C 
BRANCH   7   8
HETATM    8  C   UNL     1      11.287   3.751  93.127  1.00  0.00     0.000 A 
HETATM    9  C   UNL     1      10.321   3.819  92.122  1.00  0.00     0.000 A 
HETATM   10  C   UNL     1       9.394   4.861  92.114  1.00  0.00     0.000 A 
HETATM   11  C   UNL     1       9.433   5.834  93.112  1.00  0.00     0.000 A 
HETATM   12  C   UNL     1      10.397   5.768  94.116  1.00  0.00     0.000 A 
HETATM   13  C   UNL     1      11.324   4.726  94.124  1.00  0.00     0.000 A 
BRANCH  11  14
HETATM   14  C   UNL     1       8.481   6.902  93.105  1.00  0.00     0.000 C 
HETATM   15  C   UNL     1       7.681   7.800  93.100  1.00  0.00     0.000 C 
BRANCH  15  16
HETATM   16  C   UNL     1       6.730   8.868  93.094  1.00  0.00     0.000 A 
HETATM   17  C   UNL     1       5.511   8.711  92.434  1.00  0.00     0.000 A 
HETATM   18  C   UNL     1       4.583   9.752  92.431  1.00  0.00     0.000 A 
HETATM   19  C   UNL     1       4.893  10.924  93.087  1.00  0.00     0.000 A 
HETATM   20  C   UNL     1       6.091  11.104  93.746  1.00  0.00     0.000 A 
HETATM   21  C   UNL     1       7.021  10.064  93.750  1.00  0.00     0.000 A 
BRANCH  19  22
HETATM   22  C   UNL     1       3.905  12.034  93.081  1.00  0.00     0.000 C 
HETATM   23  O   UNL     1       3.041  12.072  93.954  1.00  0.00     0.000 OA
HETATM   24  N   UNL     1       4.056  12.978  92.075  1.00  0.00     0.000 N 
HETATM   25  HN  UNL     1       4.810  12.895  91.403  1.00  0.00     0.000 HD
BRANCH  24  26
HETATM   26  C   UNL     1       3.192  14.124  91.950  1.00  0.00     0.000 C 
BRANCH  26  27
HETATM   27  C   UNL     1       3.916  15.447  92.231  1.00  0.00     0.000 C 
HETATM   28  C   UNL     1       4.394  15.556  93.675  1.00  0.00     0.000 C 
BRANCH  27  29
HETATM   29  O   UNL     1       5.041  15.569  91.361  1.00  0.00     0.000 OA
HETATM   30  H   UNL     1       5.552  14.744  91.405  1.00  0.00     0.000 HD
ENDBRANCH  27  29
ENDBRANCH  26  27
BRANCH  26  31
HETATM   31  C   UNL     1       2.594  14.107  90.548  1.00  0.00     0.000 C 
HETATM   32  O   UNL     1       1.513  14.625  90.274  1.00  0.00     0.000 OA
BRANCH  31  33
HETATM   33  P   UNL     1       3.381  13.419  89.656  1.00  0.00     0.000 P 
HETATM   34  H   UNL     1       3.942  12.350  90.325  1.00  0.00     0.000 HD
BRANCH  33  35
HETATM   35  O   UNL     1       4.422  14.153  89.069  1.00  0.00     0.000 OA
HETATM   36  H   UNL     1       3.920  14.895  88.691  1.00  0.00     0.000 HD
ENDBRANCH  33  35
ENDBRANCH  31  33
ENDBRANCH  26  31
ENDBRANCH  24  26
ENDBRANCH  19  22
ENDBRANCH  15  16
ENDBRANCH  11  14
ENDBRANCH   7   8
ENDBRANCH   2   7
TORSDOF 11
ENDMDL
MODEL 8
REMARK VINA RESULT:      -3.9      3.660     12.693
REMARK  11 active torsions:
REMARK  status: ('A' for Active; 'I' for Inactive)
REMARK    1  A    between atoms: O_2  and  C_18 
REMARK    2  A    between atoms: O_5  and  P_8 
REMARK    3  A    between atoms: N_6  and  C_11 
REMARK    4  A    between atoms: N_7  and  C_15 
REMARK       I    between atoms: N_7  and  C_24 
REMARK    5  A    between atoms: P_8  and  C_23 
REMARK    6  A    between atoms: C_11  and  C_14 
REMARK    7  A    between atoms: C_15  and  C_18 
REMARK    8  A    between atoms: C_15  and  C_23 
REMARK    9  A    between atoms: C_21  and  C_26 
REMARK   10  A    between atoms: C_24  and  C_25 
REMARK   11  A    between atoms: C_29  and  C_32 
ROOT
HETATM    1  O   UNL     1       5.534  14.631  88.892  1.00  0.00     0.000 OA
HETATM    2  N   UNL     1       3.580  13.072  90.253  1.00  0.00     0.000 N 
HETATM    3  C   UNL     1       4.209  14.239  90.887  1.00  0.00     0.000 C 
HETATM    4  C   UNL     1       4.502  12.471  89.279  1.00  0.00     0.000 C 
HETATM    5  C   UNL     1       4.633  15.243  89.817  1.00  0.00     0.000 C 
HETATM    6  C   UNL     1       4.919  13.514  88.249  1.00  0.00     0.000 C 
ENDROOT
BRANCH   2   7
HETATM    7  C   UNL     1       3.175  12.092  91.260  1.00  0.00     0.000 C 
BRANCH   7   8
HETATM    8  C   UNL     1       4.221  11.057  91.498  1.00  0.00     0.000 A 
HETATM    9  C   UNL     1       3.922   9.708  91.306  1.00  0.00     0.000 A 
HETATM   10  C   UNL     1       4.899   8.738  91.531  1.00  0.00     0.000 A 
HETATM   11  C   UNL     1       6.175   9.119  91.945  1.00  0.00     0.000 A 
HETATM   12  C   UNL     1       6.475  10.466  92.136  1.00  0.00     0.000 A 
HETATM   13  C   UNL     1       5.498  11.436  91.912  1.00  0.00     0.000 A 
BRANCH  11  14
HETATM   14  C   UNL     1       7.179   8.125  92.173  1.00  0.00     0.000 C 
HETATM   15  C   UNL     1       8.021   7.288  92.365  1.00  0.00     0.000 C 
BRANCH  15  16
HETATM   16  C   UNL     1       9.023   6.294  92.593  1.00  0.00     0.000 A 
HETATM   17  C   UNL     1       9.355   5.396  91.578  1.00  0.00     0.000 A 
HETATM   18  C   UNL     1      10.335   4.428  91.800  1.00  0.00     0.000 A 
HETATM   19  C   UNL     1      10.960   4.380  93.028  1.00  0.00     0.000 A 
HETATM   20  C   UNL     1      10.649   5.256  94.047  1.00  0.00     0.000 A 
HETATM   21  C   UNL     1       9.669   6.225  93.827  1.00  0.00     0.000 A 
BRANCH  19  22
HETATM   22  C   UNL     1      12.002   3.348  93.264  1.00  0.00     0.000 C 
HETATM   23  O   UNL     1      11.719   2.163  93.105  1.00  0.00     0.000 OA
HETATM   24  N   UNL     1      13.254   3.820  93.632  1.00  0.00     0.000 N 
HETATM   25  HN  UNL     1      13.421   4.816  93.719  1.00  0.00     0.000 HD
BRANCH  24  26
HETATM   26  C   UNL     1      14.374   2.945  93.871  1.00  0.00     0.000 C 
BRANCH  26  27
HETATM   27  C   UNL     1      14.451   1.791  92.864  1.00  0.00     0.000 C 
HETATM   28  C   UNL     1      15.270   2.149  91.629  1.00  0.00     0.000 C 
BRANCH  27  29
HETATM   29  O   UNL     1      15.034   0.649  93.491  1.00  0.00     0.000 OA
HETATM   30  H   UNL     1      14.584   0.505  94.341  1.00  0.00     0.000 HD
ENDBRANCH  27  29
ENDBRANCH  26  27
BRANCH  26  31
HETATM   31  C   UNL     1      15.641   3.793  93.843  1.00  0.00     0.000 C 
HETATM   32  O   UNL     1      15.640   4.990  93.564  1.00  0.00     0.000 OA
BRANCH  31  33
HETATM   33  P   UNL     1      16.766   3.054  94.124  1.00  0.00     0.000 P 
HETATM   34  H   UNL     1      16.995   3.133  95.483  1.00  0.00     0.000 HD
BRANCH  33  35
HETATM   35  O   UNL     1      17.938   3.454  93.466  1.00  0.00     0.000 OA
HETATM   36  H   UNL     1      18.598   2.934  93.956  1.00  0.00     0.000 HD
ENDBRANCH  33  35
ENDBRANCH  31  33
ENDBRANCH  26  31
ENDBRANCH  24  26
ENDBRANCH  19  22
ENDBRANCH  15  16
ENDBRANCH  11  14
ENDBRANCH   7   8
ENDBRANCH   2   7
TORSDOF 11
ENDMDL
