MODEL 1
REMARK VINA RESULT:      -6.2      0.000      0.000
REMARK  14 active torsions:
REMARK  status: ('A' for Active; 'I' for Inactive)
REMARK    1  A    between atoms: O_2  and  C_18 
REMARK    2  A    between atoms: C_5  and  C_8 
REMARK    3  A    between atoms: C_5  and  O_35 
REMARK    4  A    between atoms: C_5  and  C_36 
REMARK    5  A    between atoms: N_6  and  C_11 
REMARK    6  A    between atoms: N_7  and  C_15 
REMARK       I    between atoms: N_7  and  C_24 
REMARK    7  A    between atoms: C_8  and  C_23 
REMARK    8  A    between atoms: C_11  and  C_14 
REMARK    9  A    between atoms: C_15  and  C_18 
REMARK   10  A    between atoms: C_15  and  C_23 
REMARK   11  A    between atoms: C_21  and  C_26 
REMARK   12  A    between atoms: C_24  and  C_25 
REMARK   13  A    between atoms: C_29  and  C_32 
REMARK   14  A    between atoms: C_36  and  O_39 
ROOT
HETATM    1  O   UNL     1      17.202   3.790  93.732  1.00  0.00    -0.350 OA
HETATM    2  N   UNL     1      14.507   3.040  93.206  1.00  0.00     0.147 N 
HETATM    3  C   UNL     1      15.596   2.054  93.188  1.00  0.00     0.283 C 
HETATM    4  C   UNL     1      15.022   4.366  92.837  1.00  0.00     0.283 C 
HETATM    5  C   UNL     1      16.717   2.504  94.122  1.00  0.00     0.178 C 
HETATM    6  C   UNL     1      16.156   4.762  93.777  1.00  0.00     0.178 C 
ENDROOT
BRANCH   2   7
HETATM    7  C   UNL     1      13.426   2.635  92.309  1.00  0.00     0.277 C 
BRANCH   7   8
HETATM    8  C   UNL     1      12.284   3.593  92.326  1.00  0.00     0.011 A 
HETATM    9  C   UNL     1      11.827   4.110  93.539  1.00  0.00    -0.002 A 
HETATM   10  C   UNL     1      10.757   5.004  93.556  1.00  0.00     0.008 A 
HETATM   11  C   UNL     1      10.147   5.383  92.361  1.00  0.00     0.042 A 
HETATM   12  C   UNL     1      10.603   4.868  91.149  1.00  0.00     0.008 A 
HETATM   13  C   UNL     1      11.672   3.972  91.132  1.00  0.00    -0.002 A 
BRANCH  11  14
HETATM   14  C   UNL     1       9.051   6.303  92.379  1.00  0.00    -0.059 C 
HETATM   15  C   UNL     1       8.130   7.075  92.393  1.00  0.00    -0.059 C 
BRANCH  15  16
HETATM   16  C   UNL     1       7.034   7.993  92.410  1.00  0.00     0.042 A 
HETATM   17  C   UNL     1       7.147   9.225  91.765  1.00  0.00     0.008 A 
HETATM   18  C   UNL     1       6.077  10.120  91.780  1.00  0.00     0.005 A 
HETATM   19  C   UNL     1       4.918   9.763  92.438  1.00  0.00     0.056 A 
HETATM   20  C   UNL     1       4.782   8.551  93.084  1.00  0.00     0.005 A 
HETATM   21  C   UNL     1       5.852   7.656  93.070  1.00  0.00     0.008 A 
BRANCH  19  22
HETATM   22  C   UNL     1       3.779  10.717  92.456  1.00  0.00     0.254 C 
HETATM   23  O   UNL     1       2.843  10.519  93.226  1.00  0.00    -0.268 OA
HETATM   24  N   UNL     1       3.879  11.798  91.592  1.00  0.00    -0.335 N 
HETATM   25  HN  UNL     1       4.695  11.910  91.001  1.00  0.00     0.164 HD
BRANCH  24  26
HETATM   26  C   UNL     1       2.868  12.822  91.510  1.00  0.00     0.169 C 
BRANCH  26  27
HETATM   27  C   UNL     1       2.921  13.803  92.688  1.00  0.00     0.138 C 
HETATM   28  C   UNL     1       4.209  14.618  92.711  1.00  0.00     0.034 C 
BRANCH  27  29
HETATM   29  O   UNL     1       1.809  14.696  92.615  1.00  0.00    -0.383 OA
HETATM   30  H   UNL     1       2.034  15.413  91.998  1.00  0.00     0.210 HD
ENDBRANCH  27  29
ENDBRANCH  26  27
BRANCH  26  31
HETATM   31  C   UNL     1       3.042  13.543  90.178  1.00  0.00     0.194 C 
HETATM   32  O   UNL     1       2.318  14.470  89.819  1.00  0.00    -0.289 OA
BRANCH  31  33
HETATM   33  C   UNL     1       4.064  13.012  89.429  1.00  0.00     0.053 C 
BRANCH  33  34
HETATM   34  C   UNL     1       3.700  12.500  88.176  1.00  0.00     0.220 C 
BRANCH  34  35
HETATM   35  O   UNL     1       4.610  12.778  87.373  1.00  0.00    -0.371 OA
HETATM   36  H   UNL     1       4.678  13.701  87.564  1.00  0.00     0.211 HD
ENDBRANCH  34  35
BRANCH  34  37
HETATM   37  C   UNL     1       3.408  11.125  88.197  1.00  0.00     0.185 C 
HETATM   38  O   UNL     1       4.694  11.019  88.491  1.00  0.00    -0.647 OA
BRANCH  37  39
HETATM   39  O   UNL     1       2.458  10.430  87.993  1.00  0.00    -0.774 OA
HETATM   40  H   UNL     1       1.501  10.908  88.371  1.00  0.00     0.167 HD
ENDBRANCH  37  39
ENDBRANCH  34  37
ENDBRANCH  33  34
ENDBRANCH  31  33
ENDBRANCH  26  31
ENDBRANCH  24  26
ENDBRANCH  19  22
ENDBRANCH  15  16
ENDBRANCH  11  14
ENDBRANCH   7   8
ENDBRANCH   2   7
TORSDOF 14
ENDMDL
