MODEL 1
REMARK VINA RESULT:      -6.8      0.000      0.000
REMARK  10 active torsions:
REMARK  status: ('A' for Active; 'I' for Inactive)
REMARK    1  A    between atoms: O_2  and  C_16 
REMARK    2  A    between atoms: N_5  and  C_9 
REMARK    3  A    between atoms: N_6  and  C_13 
REMARK       I    between atoms: N_6  and  C_22 
REMARK    4  A    between atoms: C_9  and  C_12 
REMARK    5  A    between atoms: C_13  and  C_16 
REMARK    6  A    between atoms: C_13  and  C_21 
REMARK    7  A    between atoms: C_19  and  C_24 
REMARK    8  A    between atoms: C_22  and  C_23 
REMARK    9  A    between atoms: C_27  and  C_30 
REMARK   10  A    between atoms: N_33  and  S_34 
ROOT
HETATM    1  C   UNL     1       5.749  11.300  90.217  1.00  0.00     0.056 A 
HETATM    2  C   UNL     1       5.385  10.324  91.120  1.00  0.00     0.005 A 
HETATM    3  C   UNL     1       6.927  11.240  89.503  1.00  0.00     0.005 A 
HETATM    4  C   UNL     1       7.436   9.154  90.610  1.00  0.00     0.042 A 
HETATM    5  C   UNL     1       6.238   9.238  91.320  1.00  0.00     0.008 A 
HETATM    6  C   UNL     1       7.781  10.154  89.701  1.00  0.00     0.008 A 
ENDROOT
BRANCH   1   7
HETATM    7  C   UNL     1       4.840  12.455  90.003  1.00  0.00     0.254 C 
HETATM    8  O   UNL     1       4.764  12.961  88.886  1.00  0.00    -0.268 OA
HETATM    9  N   UNL     1       4.110  12.867  91.110  1.00  0.00    -0.337 N 
HETATM   10  HN  UNL     1       4.206  12.385  91.996  1.00  0.00     0.164 HD
BRANCH   9  11
HETATM   11  C   UNL     1       3.168  13.956  91.056  1.00  0.00     0.172 C 
BRANCH  11  12
HETATM   12  C   UNL     1       1.854  13.642  91.782  1.00  0.00     0.136 C 
HETATM   13  C   UNL     1       1.933  12.360  92.603  1.00  0.00     0.034 C 
BRANCH  12  14
HETATM   14  O   UNL     1       1.515  14.726  92.646  1.00  0.00    -0.383 OA
HETATM   15  H   UNL     1       0.590  14.616  92.924  1.00  0.00     0.210 HD
ENDBRANCH  12  14
ENDBRANCH  11  12
BRANCH  11  16
HETATM   16  C   UNL     1       3.847  15.188  91.647  1.00  0.00     0.398 A 
HETATM   17  O   UNL     1       4.945  15.593  91.270  1.00  0.00    -0.136 OA
HETATM   18  N   UNL     1       4.867  15.615  92.787  1.00  0.00     0.142 N 
HETATM   19  HN  UNL     1       5.769  15.986  92.685  1.00  0.00     0.338 HD
BRANCH  18  20
HETATM   20  S   UNL     1       4.197  15.068  93.876  1.00  0.00     0.076 SA
HETATM   21  H   UNL     1       3.418  14.203  93.640  1.00  0.00     0.136 HD
ENDBRANCH  18  20
ENDBRANCH  11  16
ENDBRANCH   9  11
ENDBRANCH   1   7
BRANCH   4  22
HETATM   22  C   UNL     1       8.311   8.043  90.816  1.00  0.00    -0.059 C 
HETATM   23  C   UNL     1       9.047   7.108  90.990  1.00  0.00    -0.059 C 
BRANCH  23  24
HETATM   24  C   UNL     1       9.923   5.995  91.196  1.00  0.00     0.042 A 
HETATM   25  C   UNL     1      10.531   5.377  90.104  1.00  0.00     0.008 A 
HETATM   26  C   UNL     1      11.383   4.291  90.304  1.00  0.00    -0.002 A 
HETATM   27  C   UNL     1      11.628   3.825  91.597  1.00  0.00     0.011 A 
HETATM   28  C   UNL     1      11.019   4.445  92.688  1.00  0.00    -0.002 A 
HETATM   29  C   UNL     1      10.166   5.531  92.487  1.00  0.00     0.008 A 
BRANCH  27  30
HETATM   30  C   UNL     1      12.541   2.666  91.810  1.00  0.00     0.277 C 
BRANCH  30  31
HETATM   31  N   UNL     1      13.565   2.941  92.815  1.00  0.00     0.147 N 
HETATM   32  C   UNL     1      14.371   1.741  93.079  1.00  0.00     0.283 C 
HETATM   33  C   UNL     1      15.440   2.055  94.123  1.00  0.00     0.178 C 
HETATM   34  O   UNL     1      16.272   3.127  93.675  1.00  0.00    -0.350 OA
HETATM   35  C   UNL     1      15.501   4.306  93.446  1.00  0.00     0.178 C 
HETATM   36  C   UNL     1      14.434   4.047  92.388  1.00  0.00     0.283 C 
ENDBRANCH  30  31
ENDBRANCH  27  30
ENDBRANCH  23  24
ENDBRANCH   4  22
TORSDOF 10
ENDMDL
