MODEL 1
REMARK VINA RESULT:      -6.1      0.000      0.000
REMARK  12 active torsions:
REMARK  status: ('A' for Active; 'I' for Inactive)
REMARK    1  A    between atoms: O_2  and  C_16 
REMARK    2  A    between atoms: N_5  and  C_9 
REMARK    3  A    between atoms: N_6  and  C_13 
REMARK       I    between atoms: N_6  and  C_22 
REMARK    4  A    between atoms: C_9  and  C_12 
REMARK    5  A    between atoms: C_13  and  C_16 
REMARK    6  A    between atoms: C_13  and  C_21 
REMARK    7  A    between atoms: C_19  and  C_24 
REMARK    8  A    between atoms: C_21  and  C_33 
REMARK    9  A    between atoms: C_22  and  C_23 
REMARK   10  A    between atoms: C_27  and  C_30 
REMARK   11  A    between atoms: C_33  and  C_34 
REMARK   12  A    between atoms: C_34  and  C_35 
ROOT
HETATM    1  O   UNL     1      16.339   2.951  93.753  1.00  0.00    -0.350 OA
HETATM    2  N   UNL     1      13.695   2.785  92.712  1.00  0.00     0.147 N 
HETATM    3  C   UNL     1      14.482   1.579  93.006  1.00  0.00     0.283 C 
HETATM    4  C   UNL     1      14.590   3.897  92.363  1.00  0.00     0.283 C 
HETATM    5  C   UNL     1      15.479   1.872  94.124  1.00  0.00     0.178 C 
HETATM    6  C   UNL     1      15.584   4.136  93.495  1.00  0.00     0.178 C 
ENDROOT
BRANCH   2   7
HETATM    7  C   UNL     1      12.740   2.529  91.635  1.00  0.00     0.277 C 
BRANCH   7   8
HETATM    8  C   UNL     1      11.613   3.506  91.632  1.00  0.00     0.011 A 
HETATM    9  C   UNL     1      10.732   3.549  90.551  1.00  0.00    -0.002 A 
HETATM   10  C   UNL     1       9.679   4.464  90.546  1.00  0.00     0.008 A 
HETATM   11  C   UNL     1       9.507   5.333  91.623  1.00  0.00     0.042 A 
HETATM   12  C   UNL     1      10.386   5.290  92.703  1.00  0.00     0.008 A 
HETATM   13  C   UNL     1      11.440   4.376  92.708  1.00  0.00    -0.002 A 
BRANCH  11  14
HETATM   14  C   UNL     1       8.425   6.270  91.619  1.00  0.00    -0.059 C 
HETATM   15  C   UNL     1       7.516   7.057  91.616  1.00  0.00    -0.059 C 
BRANCH  15  16
HETATM   16  C   UNL     1       6.436   7.993  91.613  1.00  0.00     0.042 A 
HETATM   17  C   UNL     1       5.765   8.278  90.423  1.00  0.00     0.008 A 
HETATM   18  C   UNL     1       4.709   9.190  90.420  1.00  0.00     0.005 A 
HETATM   19  C   UNL     1       4.348   9.795  91.606  1.00  0.00     0.056 A 
HETATM   20  C   UNL     1       4.996   9.531  92.794  1.00  0.00     0.005 A 
HETATM   21  C   UNL     1       6.052   8.620  92.798  1.00  0.00     0.008 A 
BRANCH  19  22
HETATM   22  C   UNL     1       3.225  10.768  91.602  1.00  0.00     0.254 C 
HETATM   23  O   UNL     1       2.150  10.441  91.105  1.00  0.00    -0.268 OA
HETATM   24  N   UNL     1       3.481  11.995  92.198  1.00  0.00    -0.335 N 
HETATM   25  HN  UNL     1       4.387  12.186  92.610  1.00  0.00     0.164 HD
BRANCH  24  26
HETATM   26  C   UNL     1       2.486  13.033  92.295  1.00  0.00     0.166 C 
BRANCH  26  27
HETATM   27  C   UNL     1       2.625  13.871  93.572  1.00  0.00     0.138 C 
HETATM   28  C   UNL     1       4.076  14.215  93.889  1.00  0.00     0.034 C 
BRANCH  27  29
HETATM   29  O   UNL     1       1.882  15.081  93.431  1.00  0.00    -0.383 OA
HETATM   30  H   UNL     1       2.122  15.673  94.164  1.00  0.00     0.210 HD
ENDBRANCH  27  29
ENDBRANCH  26  27
BRANCH  26  31
HETATM   31  C   UNL     1       2.597  13.902  91.046  1.00  0.00     0.181 C 
HETATM   32  O   UNL     1       1.807  14.808  90.789  1.00  0.00    -0.294 OA
BRANCH  31  33
HETATM   33  C   UNL     1       4.081  14.534  90.882  1.00  0.00     0.138 C 
BRANCH  33  34
HETATM   34  C   UNL     1       4.349  14.253  89.524  1.00  0.00     0.208 C 
HETATM   35  O   UNL     1       4.949  15.107  88.913  1.00  0.00    -0.289 OA
BRANCH  34  36
HETATM   36  C   UNL     1       4.308  13.071  88.838  1.00  0.00     0.194 C 
HETATM   37  O   UNL     1       5.344  12.213  88.451  1.00  0.00    -0.185 OA
ENDBRANCH  34  36
ENDBRANCH  33  34
ENDBRANCH  31  33
ENDBRANCH  26  31
ENDBRANCH  24  26
ENDBRANCH  19  22
ENDBRANCH  15  16
ENDBRANCH  11  14
ENDBRANCH   7   8
ENDBRANCH   2   7
TORSDOF 12
ENDMDL
MODEL 2
REMARK VINA RESULT:      -5.8      1.392      1.712
REMARK  12 active torsions:
REMARK  status: ('A' for Active; 'I' for Inactive)
REMARK    1  A    between atoms: O_2  and  C_16 
REMARK    2  A    between atoms: N_5  and  C_9 
REMARK    3  A    between atoms: N_6  and  C_13 
REMARK       I    between atoms: N_6  and  C_22 
REMARK    4  A    between atoms: C_9  and  C_12 
REMARK    5  A    between atoms: C_13  and  C_16 
REMARK    6  A    between atoms: C_13  and  C_21 
REMARK    7  A    between atoms: C_19  and  C_24 
REMARK    8  A    between atoms: C_21  and  C_33 
REMARK    9  A    between atoms: C_22  and  C_23 
REMARK   10  A    between atoms: C_27  and  C_30 
REMARK   11  A    between atoms: C_33  and  C_34 
REMARK   12  A    between atoms: C_34  and  C_35 
ROOT
HETATM    1  O   UNL     1      16.927   3.809  94.124  1.00  0.00    -0.350 OA
HETATM    2  N   UNL     1      14.602   3.208  92.595  1.00  0.00     0.147 N 
HETATM    3  C   UNL     1      14.589   4.242  93.639  1.00  0.00     0.283 C 
HETATM    4  C   UNL     1      15.595   2.176  92.922  1.00  0.00     0.283 C 
HETATM    5  C   UNL     1      15.987   4.835  93.798  1.00  0.00     0.178 C 
HETATM    6  C   UNL     1      16.969   2.816  93.099  1.00  0.00     0.178 C 
ENDROOT
BRANCH   2   7
HETATM    7  C   UNL     1      13.274   2.619  92.433  1.00  0.00     0.277 C 
BRANCH   7   8
HETATM    8  C   UNL     1      12.190   3.640  92.485  1.00  0.00     0.011 A 
HETATM    9  C   UNL     1      11.660   4.156  91.302  1.00  0.00    -0.002 A 
HETATM   10  C   UNL     1      10.647   5.113  91.349  1.00  0.00     0.008 A 
HETATM   11  C   UNL     1      10.162   5.552  92.581  1.00  0.00     0.042 A 
HETATM   12  C   UNL     1      10.690   5.038  93.764  1.00  0.00     0.008 A 
HETATM   13  C   UNL     1      11.704   4.082  93.716  1.00  0.00    -0.002 A 
BRANCH  11  14
HETATM   14  C   UNL     1       9.121   6.533  92.630  1.00  0.00    -0.059 C 
HETATM   15  C   UNL     1       8.247   7.357  92.671  1.00  0.00    -0.059 C 
BRANCH  15  16
HETATM   16  C   UNL     1       7.207   8.337  92.719  1.00  0.00     0.042 A 
HETATM   17  C   UNL     1       5.892   7.972  92.427  1.00  0.00     0.008 A 
HETATM   18  C   UNL     1       4.877   8.927  92.477  1.00  0.00     0.005 A 
HETATM   19  C   UNL     1       5.199  10.224  92.817  1.00  0.00     0.056 A 
HETATM   20  C   UNL     1       6.490  10.610  93.109  1.00  0.00     0.005 A 
HETATM   21  C   UNL     1       7.506   9.656  93.060  1.00  0.00     0.008 A 
BRANCH  19  22
HETATM   22  C   UNL     1       4.117  11.242  92.868  1.00  0.00     0.254 C 
HETATM   23  O   UNL     1       3.329  11.233  93.810  1.00  0.00    -0.268 OA
HETATM   24  N   UNL     1       4.100  12.163  91.829  1.00  0.00    -0.335 N 
HETATM   25  HN  UNL     1       4.800  12.124  91.098  1.00  0.00     0.164 HD
BRANCH  24  26
HETATM   26  C   UNL     1       3.129  13.225  91.751  1.00  0.00     0.166 C 
BRANCH  26  27
HETATM   27  C   UNL     1       3.547  14.471  92.541  1.00  0.00     0.138 C 
HETATM   28  C   UNL     1       2.381  15.104  93.293  1.00  0.00     0.034 C 
BRANCH  27  29
HETATM   29  O   UNL     1       4.567  14.123  93.476  1.00  0.00    -0.383 OA
HETATM   30  H   UNL     1       5.209  14.853  93.512  1.00  0.00     0.210 HD
ENDBRANCH  27  29
ENDBRANCH  26  27
BRANCH  26  31
HETATM   31  C   UNL     1       2.913  13.550  90.276  1.00  0.00     0.181 C 
HETATM   32  O   UNL     1       2.027  14.305  89.880  1.00  0.00    -0.294 OA
BRANCH  31  33
HETATM   33  C   UNL     1       4.281  14.044  89.561  1.00  0.00     0.138 C 
BRANCH  33  34
HETATM   34  C   UNL     1       4.329  13.186  88.440  1.00  0.00     0.208 C 
HETATM   35  O   UNL     1       5.067  13.524  87.543  1.00  0.00    -0.289 OA
BRANCH  34  36
HETATM   36  C   UNL     1       3.911  11.892  88.295  1.00  0.00     0.194 C 
HETATM   37  O   UNL     1       4.627  10.746  87.929  1.00  0.00    -0.185 OA
ENDBRANCH  34  36
ENDBRANCH  33  34
ENDBRANCH  31  33
ENDBRANCH  26  31
ENDBRANCH  24  26
ENDBRANCH  19  22
ENDBRANCH  15  16
ENDBRANCH  11  14
ENDBRANCH   7   8
ENDBRANCH   2   7
TORSDOF 12
ENDMDL
MODEL 3
REMARK VINA RESULT:      -4.1      2.594     12.411
REMARK  12 active torsions:
REMARK  status: ('A' for Active; 'I' for Inactive)
REMARK    1  A    between atoms: O_2  and  C_16 
REMARK    2  A    between atoms: N_5  and  C_9 
REMARK    3  A    between atoms: N_6  and  C_13 
REMARK       I    between atoms: N_6  and  C_22 
REMARK    4  A    between atoms: C_9  and  C_12 
REMARK    5  A    between atoms: C_13  and  C_16 
REMARK    6  A    between atoms: C_13  and  C_21 
REMARK    7  A    between atoms: C_19  and  C_24 
REMARK    8  A    between atoms: C_21  and  C_33 
REMARK    9  A    between atoms: C_22  and  C_23 
REMARK   10  A    between atoms: C_27  and  C_30 
REMARK   11  A    between atoms: C_33  and  C_34 
REMARK   12  A    between atoms: C_34  and  C_35 
ROOT
HETATM    1  O   UNL     1       3.175  14.744  94.099  1.00  0.00    -0.350 OA
HETATM    2  N   UNL     1       2.823  14.660  91.276  1.00  0.00     0.147 N 
HETATM    3  C   UNL     1       1.826  14.087  92.191  1.00  0.00     0.283 C 
HETATM    4  C   UNL     1       4.158  14.604  91.886  1.00  0.00     0.283 C 
HETATM    5  C   UNL     1       1.868  14.825  93.527  1.00  0.00     0.178 C 
HETATM    6  C   UNL     1       4.145  15.327  93.229  1.00  0.00     0.178 C 
ENDROOT
BRANCH   2   7
HETATM    7  C   UNL     1       2.808  13.962  89.992  1.00  0.00     0.277 C 
BRANCH   7   8
HETATM    8  C   UNL     1       3.790  12.841  89.943  1.00  0.00     0.011 A 
HETATM    9  C   UNL     1       3.487  11.622  90.550  1.00  0.00    -0.002 A 
HETATM   10  C   UNL     1       4.405  10.574  90.508  1.00  0.00     0.008 A 
HETATM   11  C   UNL     1       5.627  10.745  89.856  1.00  0.00     0.042 A 
HETATM   12  C   UNL     1       5.931  11.961  89.250  1.00  0.00     0.008 A 
HETATM   13  C   UNL     1       5.013  13.010  89.293  1.00  0.00    -0.002 A 
BRANCH  11  14
HETATM   14  C   UNL     1       6.568   9.668  89.811  1.00  0.00    -0.059 C 
HETATM   15  C   UNL     1       7.360   8.764  89.773  1.00  0.00    -0.059 C 
BRANCH  15  16
HETATM   16  C   UNL     1       8.301   7.688  89.728  1.00  0.00     0.042 A 
HETATM   17  C   UNL     1       7.917   6.411  90.137  1.00  0.00     0.008 A 
HETATM   18  C   UNL     1       8.835   5.361  90.091  1.00  0.00     0.005 A 
HETATM   19  C   UNL     1      10.112   5.611  89.637  1.00  0.00     0.056 A 
HETATM   20  C   UNL     1      10.516   6.865  89.227  1.00  0.00     0.005 A 
HETATM   21  C   UNL     1       9.599   7.916  89.273  1.00  0.00     0.008 A 
BRANCH  19  22
HETATM   22  C   UNL     1      11.090   4.493  89.590  1.00  0.00     0.254 C 
HETATM   23  O   UNL     1      11.146   3.788  88.585  1.00  0.00    -0.268 OA
HETATM   24  N   UNL     1      11.900   4.346  90.707  1.00  0.00    -0.335 N 
HETATM   25  HN  UNL     1      11.814   4.983  91.490  1.00  0.00     0.164 HD
BRANCH  24  26
HETATM   26  C   UNL     1      12.912   3.325  90.802  1.00  0.00     0.166 C 
BRANCH  26  27
HETATM   27  C   UNL     1      14.323   3.901  90.976  1.00  0.00     0.138 C 
HETATM   28  C   UNL     1      15.388   3.053  90.291  1.00  0.00     0.034 C 
BRANCH  27  29
HETATM   29  O   UNL     1      14.368   5.223  90.439  1.00  0.00    -0.383 OA
HETATM   30  H   UNL     1      13.530   5.668  90.653  1.00  0.00     0.210 HD
ENDBRANCH  27  29
ENDBRANCH  26  27
BRANCH  26  31
HETATM   31  C   UNL     1      12.541   2.408  91.963  1.00  0.00     0.181 C 
HETATM   32  O   UNL     1      13.255   2.257  92.952  1.00  0.00    -0.294 OA
BRANCH  31  33
HETATM   33  C   UNL     1      11.052   2.719  92.523  1.00  0.00     0.138 C 
BRANCH  33  34
HETATM   34  C   UNL     1      11.301   3.829  93.360  1.00  0.00     0.208 C 
HETATM   35  O   UNL     1      12.434   3.947  93.765  1.00  0.00    -0.289 OA
BRANCH  34  36
HETATM   36  C   UNL     1      10.564   4.962  93.574  1.00  0.00     0.194 C 
HETATM   37  O   UNL     1      10.625   6.212  92.947  1.00  0.00    -0.185 OA
ENDBRANCH  34  36
ENDBRANCH  33  34
ENDBRANCH  31  33
ENDBRANCH  26  31
ENDBRANCH  24  26
ENDBRANCH  19  22
ENDBRANCH  15  16
ENDBRANCH  11  14
ENDBRANCH   7   8
ENDBRANCH   2   7
TORSDOF 12
ENDMDL
MODEL 4
REMARK VINA RESULT:      -3.2      2.360     12.596
REMARK  12 active torsions:
REMARK  status: ('A' for Active; 'I' for Inactive)
REMARK    1  A    between atoms: O_2  and  C_16 
REMARK    2  A    between atoms: N_5  and  C_9 
REMARK    3  A    between atoms: N_6  and  C_13 
REMARK       I    between atoms: N_6  and  C_22 
REMARK    4  A    between atoms: C_9  and  C_12 
REMARK    5  A    between atoms: C_13  and  C_16 
REMARK    6  A    between atoms: C_13  and  C_21 
REMARK    7  A    between atoms: C_19  and  C_24 
REMARK    8  A    between atoms: C_21  and  C_33 
REMARK    9  A    between atoms: C_22  and  C_23 
REMARK   10  A    between atoms: C_27  and  C_30 
REMARK   11  A    between atoms: C_33  and  C_34 
REMARK   12  A    between atoms: C_34  and  C_35 
ROOT
HETATM    1  O   UNL     1       4.290  15.238  92.805  1.00  0.00    -0.350 OA
HETATM    2  N   UNL     1       3.028  13.651  90.806  1.00  0.00     0.147 N 
HETATM    3  C   UNL     1       2.640  13.556  92.221  1.00  0.00     0.283 C 
HETATM    4  C   UNL     1       4.439  14.047  90.697  1.00  0.00     0.283 C 
HETATM    5  C   UNL     1       2.910  14.886  92.921  1.00  0.00     0.178 C 
HETATM    6  C   UNL     1       4.667  15.363  91.433  1.00  0.00     0.178 C 
ENDROOT
BRANCH   2   7
HETATM    7  C   UNL     1       2.788  12.384  90.118  1.00  0.00     0.277 C 
BRANCH   7   8
HETATM    8  C   UNL     1       3.952  11.458  90.212  1.00  0.00     0.011 A 
HETATM    9  C   UNL     1       4.189  10.755  91.394  1.00  0.00    -0.002 A 
HETATM   10  C   UNL     1       5.279   9.889  91.483  1.00  0.00     0.008 A 
HETATM   11  C   UNL     1       6.130   9.725  90.390  1.00  0.00     0.042 A 
HETATM   12  C   UNL     1       5.894  10.426  89.210  1.00  0.00     0.008 A 
HETATM   13  C   UNL     1       4.804  11.292  89.120  1.00  0.00    -0.002 A 
BRANCH  11  14
HETATM   14  C   UNL     1       7.246   8.835  90.482  1.00  0.00    -0.059 C 
HETATM   15  C   UNL     1       8.184   8.087  90.559  1.00  0.00    -0.059 C 
BRANCH  15  16
HETATM   16  C   UNL     1       9.300   7.197  90.649  1.00  0.00     0.042 A 
HETATM   17  C   UNL     1       9.946   6.771  89.489  1.00  0.00     0.008 A 
HETATM   18  C   UNL     1      11.037   5.905  89.577  1.00  0.00     0.005 A 
HETATM   19  C   UNL     1      11.456   5.487  90.823  1.00  0.00     0.056 A 
HETATM   20  C   UNL     1      10.834   5.894  91.984  1.00  0.00     0.005 A 
HETATM   21  C   UNL     1       9.743   6.759  91.897  1.00  0.00     0.008 A 
BRANCH  19  22
HETATM   22  C   UNL     1      12.617   4.563  90.917  1.00  0.00     0.254 C 
HETATM   23  O   UNL     1      12.972   3.943  89.917  1.00  0.00    -0.268 OA
HETATM   24  N   UNL     1      13.238   4.492  92.156  1.00  0.00    -0.335 N 
HETATM   25  HN  UNL     1      12.904   5.054  92.930  1.00  0.00     0.164 HD
BRANCH  24  26
HETATM   26  C   UNL     1      14.390   3.661  92.399  1.00  0.00     0.166 C 
BRANCH  26  27
HETATM   27  C   UNL     1      15.393   4.305  93.364  1.00  0.00     0.138 C 
HETATM   28  C   UNL     1      16.463   3.325  93.834  1.00  0.00     0.034 C 
BRANCH  27  29
HETATM   29  O   UNL     1      16.028   5.412  92.725  1.00  0.00    -0.383 OA
HETATM   30  H   UNL     1      16.476   5.087  91.926  1.00  0.00     0.210 HD
ENDBRANCH  27  29
ENDBRANCH  26  27
BRANCH  26  31
HETATM   31  C   UNL     1      13.893   2.320  92.928  1.00  0.00     0.181 C 
HETATM   32  O   UNL     1      14.580   1.583  93.634  1.00  0.00    -0.294 OA
BRANCH  31  33
HETATM   33  C   UNL     1      12.463   2.460  93.677  1.00  0.00     0.138 C 
BRANCH  33  34
HETATM   34  C   UNL     1      11.573   2.124  92.633  1.00  0.00     0.208 C 
HETATM   35  O   UNL     1      11.997   1.360  91.798  1.00  0.00    -0.289 OA
BRANCH  34  36
HETATM   36  C   UNL     1      10.217   2.278  92.539  1.00  0.00     0.194 C 
HETATM   37  O   UNL     1       9.457   3.123  91.722  1.00  0.00    -0.185 OA
ENDBRANCH  34  36
ENDBRANCH  33  34
ENDBRANCH  31  33
ENDBRANCH  26  31
ENDBRANCH  24  26
ENDBRANCH  19  22
ENDBRANCH  15  16
ENDBRANCH  11  14
ENDBRANCH   7   8
ENDBRANCH   2   7
TORSDOF 12
ENDMDL
