MODEL 1
REMARK VINA RESULT:      -7.6      0.000      0.000
REMARK  9 active torsions:
REMARK  status: ('A' for Active; 'I' for Inactive)
REMARK    1  A    between atoms: N_3  and  C_6 
REMARK    2  A    between atoms: C_6  and  C_9 
REMARK    3  A    between atoms: C_14  and  C_17 
REMARK       I    between atoms: N_26  and  C_15 
REMARK    4  A    between atoms: C_15  and  C_16 
REMARK    5  A    between atoms: C_20  and  C_23 
REMARK    6  A    between atoms: OG1_24  and  CB_28 
REMARK    7  A    between atoms: N_26  and  CA_27 
REMARK    8  A    between atoms: CA_27  and  CB_28 
REMARK    9  A    between atoms: CA_27  and  C_30 
ROOT
HETATM    1  O   UNK A   0       1.941   8.215  87.974  1.00  0.00    -0.388 OA
HETATM    2  N   UNK A   0       4.709   7.589  87.752  1.00  0.00     0.096 N 
HETATM    3  C   UNK A   0       4.240   8.979  87.833  1.00  0.00     0.299 C 
HETATM    4  C   UNK A   0       3.677   6.745  87.132  1.00  0.00     0.299 C 
HETATM    5  C   UNK A   0       2.924   9.037  88.605  1.00  0.00     0.198 C 
HETATM    6  C   UNK A   0       2.376   6.856  87.920  1.00  0.00     0.198 C 
ENDROOT
BRANCH   2   7
HETATM    7  C   UNK A   0       5.963   7.508  87.006  1.00  0.00     0.311 C 
BRANCH   7   8
HETATM    8  C   UNK A   0       7.066   6.912  87.813  1.00  0.00    -0.030 A 
HETATM    9  C   UNK A   0       6.855   6.597  89.156  1.00  0.00     0.010 A 
HETATM   10  C   UNK A   0       7.887   6.041  89.912  1.00  0.00     0.021 A 
HETATM   11  C   UNK A   0       9.128   5.798  89.324  1.00  0.00     0.018 A 
HETATM   12  C   UNK A   0       9.340   6.112  87.983  1.00  0.00     0.021 A 
HETATM   13  C   UNK A   0       8.308   6.669  87.227  1.00  0.00     0.010 A 
BRANCH  11  14
HETATM   14  C   UNK A   0      10.186   5.226  90.100  1.00  0.00    -0.061 C 
HETATM   15  C   UNK A   0      11.075   4.746  90.751  1.00  0.00    -0.061 C 
BRANCH  15  16
HETATM   16  C   UNK A   0      12.131   4.174  91.527  1.00  0.00     0.018 A 
HETATM   17  C   UNK A   0      13.376   3.938  90.941  1.00  0.00     0.022 A 
HETATM   18  C   UNK A   0      14.407   3.384  91.699  1.00  0.00     0.018 A 
HETATM   19  C   UNK A   0      14.172   3.078  93.023  1.00  0.00     0.032 A 
HETATM   20  C   UNK A   0      12.951   3.302  93.624  1.00  0.00     0.018 A 
HETATM   21  C   UNK A   0      11.919   3.856  92.868  1.00  0.00     0.022 A 
BRANCH  19  22
HETATM   22  C   UNK A   0      15.271   2.485  93.829  1.00  0.00     0.252 C 
HETATM   23  O   UNK A   0      16.409   2.934  93.713  1.00  0.00    -0.268 OA
ENDBRANCH  19  22
ENDBRANCH  15  16
ENDBRANCH  11  14
ENDBRANCH   7   8
ENDBRANCH   2   7
TORSDOF 9
ENDMDL
MODEL 2
REMARK VINA RESULT:      -7.5      0.139      1.431
REMARK  9 active torsions:
REMARK  status: ('A' for Active; 'I' for Inactive)
REMARK    1  A    between atoms: N_3  and  C_6 
REMARK    2  A    between atoms: C_6  and  C_9 
REMARK    3  A    between atoms: C_14  and  C_17 
REMARK       I    between atoms: N_26  and  C_15 
REMARK    4  A    between atoms: C_15  and  C_16 
REMARK    5  A    between atoms: C_20  and  C_23 
REMARK    6  A    between atoms: OG1_24  and  CB_28 
REMARK    7  A    between atoms: N_26  and  CA_27 
REMARK    8  A    between atoms: CA_27  and  CB_28 
REMARK    9  A    between atoms: CA_27  and  C_30 
ROOT
HETATM    1  O   UNK A   0       1.828   8.008  87.808  1.00  0.00    -0.388 OA
HETATM    2  N   UNK A   0       4.631   7.537  87.666  1.00  0.00     0.096 N 
HETATM    3  C   UNK A   0       4.085   8.898  87.761  1.00  0.00     0.299 C 
HETATM    4  C   UNK A   0       3.669   6.653  86.994  1.00  0.00     0.299 C 
HETATM    5  C   UNK A   0       2.744   8.867  88.489  1.00  0.00     0.198 C 
HETATM    6  C   UNK A   0       2.338   6.676  87.739  1.00  0.00     0.198 C 
ENDROOT
BRANCH   2   7
HETATM    7  C   UNK A   0       5.912   7.541  86.962  1.00  0.00     0.311 C 
BRANCH   7   8
HETATM    8  C   UNK A   0       7.009   6.941  87.774  1.00  0.00    -0.030 A 
HETATM    9  C   UNK A   0       8.242   6.662  87.182  1.00  0.00     0.010 A 
HETATM   10  C   UNK A   0       9.267   6.098  87.940  1.00  0.00     0.021 A 
HETATM   11  C   UNK A   0       9.061   5.815  89.290  1.00  0.00     0.018 A 
HETATM   12  C   UNK A   0       7.831   6.093  89.882  1.00  0.00     0.021 A 
HETATM   13  C   UNK A   0       6.804   6.657  89.125  1.00  0.00     0.010 A 
BRANCH  11  14
HETATM   14  C   UNK A   0      10.114   5.239  90.068  1.00  0.00    -0.061 C 
HETATM   15  C   UNK A   0      10.999   4.754  90.722  1.00  0.00    -0.061 C 
BRANCH  15  16
HETATM   16  C   UNK A   0      12.052   4.178  91.499  1.00  0.00     0.018 A 
HETATM   17  C   UNK A   0      11.818   3.805  92.823  1.00  0.00     0.022 A 
HETATM   18  C   UNK A   0      12.844   3.241  93.579  1.00  0.00     0.018 A 
HETATM   19  C   UNK A   0      14.081   3.061  92.996  1.00  0.00     0.032 A 
HETATM   20  C   UNK A   0      14.338   3.421  91.690  1.00  0.00     0.018 A 
HETATM   21  C   UNK A   0      13.312   3.985  90.932  1.00  0.00     0.022 A 
BRANCH  19  22
HETATM   22  C   UNK A   0      15.175   2.461  93.803  1.00  0.00     0.252 C 
HETATM   23  O   UNK A   0      16.313   2.911  93.699  1.00  0.00    -0.268 OA
ENDBRANCH  19  22
ENDBRANCH  15  16
ENDBRANCH  11  14
ENDBRANCH   7   8
ENDBRANCH   2   7
TORSDOF 9
ENDMDL
MODEL 3
REMARK VINA RESULT:      -7.5      0.390      1.080
REMARK  9 active torsions:
REMARK  status: ('A' for Active; 'I' for Inactive)
REMARK    1  A    between atoms: N_3  and  C_6 
REMARK    2  A    between atoms: C_6  and  C_9 
REMARK    3  A    between atoms: C_14  and  C_17 
REMARK       I    between atoms: N_26  and  C_15 
REMARK    4  A    between atoms: C_15  and  C_16 
REMARK    5  A    between atoms: C_20  and  C_23 
REMARK    6  A    between atoms: OG1_24  and  CB_28 
REMARK    7  A    between atoms: N_26  and  CA_27 
REMARK    8  A    between atoms: CA_27  and  CB_28 
REMARK    9  A    between atoms: CA_27  and  C_30 
ROOT
HETATM    1  O   UNK A   0       1.895   8.882  88.389  1.00  0.00    -0.388 OA
HETATM    2  N   UNK A   0       4.480   7.784  87.925  1.00  0.00     0.096 N 
HETATM    3  C   UNK A   0       4.274   9.233  88.055  1.00  0.00     0.299 C 
HETATM    4  C   UNK A   0       3.267   7.149  87.390  1.00  0.00     0.299 C 
HETATM    5  C   UNK A   0       3.058   9.504  88.939  1.00  0.00     0.198 C 
HETATM    6  C   UNK A   0       2.076   7.470  88.288  1.00  0.00     0.198 C 
ENDROOT
BRANCH   2   7
HETATM    7  C   UNK A   0       5.633   7.500  87.073  1.00  0.00     0.311 C 
BRANCH   7   8
HETATM    8  C   UNK A   0       6.771   6.912  87.836  1.00  0.00    -0.030 A 
HETATM    9  C   UNK A   0       6.586   6.499  89.156  1.00  0.00     0.010 A 
HETATM   10  C   UNK A   0       7.650   5.951  89.871  1.00  0.00     0.021 A 
HETATM   11  C   UNK A   0       8.899   5.814  89.266  1.00  0.00     0.018 A 
HETATM   12  C   UNK A   0       9.085   6.226  87.948  1.00  0.00     0.021 A 
HETATM   13  C   UNK A   0       8.021   6.774  87.232  1.00  0.00     0.010 A 
BRANCH  11  14
HETATM   14  C   UNK A   0       9.990   5.250  89.999  1.00  0.00    -0.061 C 
HETATM   15  C   UNK A   0      10.907   4.776  90.616  1.00  0.00    -0.061 C 
BRANCH  15  16
HETATM   16  C   UNK A   0      11.997   4.212  91.349  1.00  0.00     0.018 A 
HETATM   17  C   UNK A   0      11.821   3.841  92.683  1.00  0.00     0.022 A 
HETATM   18  C   UNK A   0      12.884   3.288  93.397  1.00  0.00     0.018 A 
HETATM   19  C   UNK A   0      14.097   3.119  92.764  1.00  0.00     0.032 A 
HETATM   20  C   UNK A   0      14.297   3.479  91.447  1.00  0.00     0.018 A 
HETATM   21  C   UNK A   0      13.235   4.032  90.731  1.00  0.00     0.022 A 
BRANCH  19  22
HETATM   22  C   UNK A   0      15.230   2.532  93.526  1.00  0.00     0.252 C 
HETATM   23  O   UNK A   0      16.200   3.236  93.796  1.00  0.00    -0.268 OA
ENDBRANCH  19  22
ENDBRANCH  15  16
ENDBRANCH  11  14
ENDBRANCH   7   8
ENDBRANCH   2   7
TORSDOF 9
ENDMDL
MODEL 4
REMARK VINA RESULT:      -7.5      0.405      1.084
REMARK  9 active torsions:
REMARK  status: ('A' for Active; 'I' for Inactive)
REMARK    1  A    between atoms: N_3  and  C_6 
REMARK    2  A    between atoms: C_6  and  C_9 
REMARK    3  A    between atoms: C_14  and  C_17 
REMARK       I    between atoms: N_26  and  C_15 
REMARK    4  A    between atoms: C_15  and  C_16 
REMARK    5  A    between atoms: C_20  and  C_23 
REMARK    6  A    between atoms: OG1_24  and  CB_28 
REMARK    7  A    between atoms: N_26  and  CA_27 
REMARK    8  A    between atoms: CA_27  and  CB_28 
REMARK    9  A    between atoms: CA_27  and  C_30 
ROOT
HETATM    1  O   UNK A   0       1.868   8.925  88.301  1.00  0.00    -0.388 OA
HETATM    2  N   UNK A   0       4.468   7.840  87.893  1.00  0.00     0.096 N 
HETATM    3  C   UNK A   0       4.243   9.291  87.958  1.00  0.00     0.299 C 
HETATM    4  C   UNK A   0       3.265   7.166  87.385  1.00  0.00     0.299 C 
HETATM    5  C   UNK A   0       3.022   9.587  88.824  1.00  0.00     0.198 C 
HETATM    6  C   UNK A   0       2.068   7.512  88.264  1.00  0.00     0.198 C 
ENDROOT
BRANCH   2   7
HETATM    7  C   UNK A   0       5.628   7.533  87.059  1.00  0.00     0.311 C 
BRANCH   7   8
HETATM    8  C   UNK A   0       6.748   6.935  87.841  1.00  0.00    -0.030 A 
HETATM    9  C   UNK A   0       8.003   6.777  87.251  1.00  0.00     0.010 A 
HETATM   10  C   UNK A   0       9.050   6.216  87.980  1.00  0.00     0.021 A 
HETATM   11  C   UNK A   0       8.844   5.816  89.300  1.00  0.00     0.018 A 
HETATM   12  C   UNK A   0       7.592   5.973  89.890  1.00  0.00     0.021 A 
HETATM   13  C   UNK A   0       6.543   6.534  89.161  1.00  0.00     0.010 A 
BRANCH  11  14
HETATM   14  C   UNK A   0       9.919   5.242  90.049  1.00  0.00    -0.061 C 
HETATM   15  C   UNK A   0      10.823   4.760  90.680  1.00  0.00    -0.061 C 
BRANCH  15  16
HETATM   16  C   UNK A   0      11.897   4.187  91.429  1.00  0.00     0.018 A 
HETATM   17  C   UNK A   0      13.156   4.046  90.844  1.00  0.00     0.022 A 
HETATM   18  C   UNK A   0      14.205   3.488  91.576  1.00  0.00     0.018 A 
HETATM   19  C   UNK A   0      13.972   3.086  92.874  1.00  0.00     0.032 A 
HETATM   20  C   UNK A   0      12.736   3.215  93.474  1.00  0.00     0.018 A 
HETATM   21  C   UNK A   0      11.687   3.772  92.744  1.00  0.00     0.022 A 
BRANCH  19  22
HETATM   22  C   UNK A   0      15.089   2.491  93.653  1.00  0.00     0.252 C 
HETATM   23  O   UNK A   0      16.245   2.796  93.372  1.00  0.00    -0.268 OA
ENDBRANCH  19  22
ENDBRANCH  15  16
ENDBRANCH  11  14
ENDBRANCH   7   8
ENDBRANCH   2   7
TORSDOF 9
ENDMDL
MODEL 5
REMARK VINA RESULT:      -6.9      1.472      1.862
REMARK  9 active torsions:
REMARK  status: ('A' for Active; 'I' for Inactive)
REMARK    1  A    between atoms: N_3  and  C_6 
REMARK    2  A    between atoms: C_6  and  C_9 
REMARK    3  A    between atoms: C_14  and  C_17 
REMARK       I    between atoms: N_26  and  C_15 
REMARK    4  A    between atoms: C_15  and  C_16 
REMARK    5  A    between atoms: C_20  and  C_23 
REMARK    6  A    between atoms: OG1_24  and  CB_28 
REMARK    7  A    between atoms: N_26  and  CA_27 
REMARK    8  A    between atoms: CA_27  and  CB_28 
REMARK    9  A    between atoms: CA_27  and  C_30 
ROOT
HETATM    1  O   UNK A   0       2.841  11.331  89.643  1.00  0.00    -0.388 OA
HETATM    2  N   UNK A   0       4.603   9.304  88.701  1.00  0.00     0.096 N 
HETATM    3  C   UNK A   0       3.830  10.140  87.773  1.00  0.00     0.299 C 
HETATM    4  C   UNK A   0       3.883   9.166  89.974  1.00  0.00     0.299 C 
HETATM    5  C   UNK A   0       3.549  11.498  88.413  1.00  0.00     0.198 C 
HETATM    6  C   UNK A   0       3.600  10.544  90.562  1.00  0.00     0.198 C 
ENDROOT
BRANCH   2   7
HETATM    7  C   UNK A   0       4.875   7.994  88.112  1.00  0.00     0.311 C 
BRANCH   7   8
HETATM    8  C   UNK A   0       6.090   7.352  88.691  1.00  0.00    -0.030 A 
HETATM    9  C   UNK A   0       5.961   6.237  89.520  1.00  0.00     0.010 A 
HETATM   10  C   UNK A   0       7.097   5.637  90.063  1.00  0.00     0.021 A 
HETATM   11  C   UNK A   0       8.361   6.152  89.776  1.00  0.00     0.018 A 
HETATM   12  C   UNK A   0       8.491   7.265  88.949  1.00  0.00     0.021 A 
HETATM   13  C   UNK A   0       7.355   7.866  88.405  1.00  0.00     0.010 A 
BRANCH  11  14
HETATM   14  C   UNK A   0       9.526   5.535  90.332  1.00  0.00    -0.061 C 
HETATM   15  C   UNK A   0      10.506   5.018  90.799  1.00  0.00    -0.061 C 
BRANCH  15  16
HETATM   16  C   UNK A   0      11.671   4.402  91.355  1.00  0.00     0.018 A 
HETATM   17  C   UNK A   0      12.850   4.344  90.611  1.00  0.00     0.022 A 
HETATM   18  C   UNK A   0      13.987   3.746  91.155  1.00  0.00     0.018 A 
HETATM   19  C   UNK A   0      13.920   3.221  92.429  1.00  0.00     0.032 A 
HETATM   20  C   UNK A   0      12.766   3.266  93.183  1.00  0.00     0.018 A 
HETATM   21  C   UNK A   0      11.629   3.863  92.641  1.00  0.00     0.022 A 
BRANCH  19  22
HETATM   22  C   UNK A   0      15.131   2.583  93.006  1.00  0.00     0.252 C 
HETATM   23  O   UNK A   0      15.734   3.152  93.913  1.00  0.00    -0.268 OA
ENDBRANCH  19  22
ENDBRANCH  15  16
ENDBRANCH  11  14
ENDBRANCH   7   8
ENDBRANCH   2   7
TORSDOF 9
ENDMDL
MODEL 6
REMARK VINA RESULT:      -6.6      3.883     10.454
REMARK  9 active torsions:
REMARK  status: ('A' for Active; 'I' for Inactive)
REMARK    1  A    between atoms: N_3  and  C_6 
REMARK    2  A    between atoms: C_6  and  C_9 
REMARK    3  A    between atoms: C_14  and  C_17 
REMARK       I    between atoms: N_26  and  C_15 
REMARK    4  A    between atoms: C_15  and  C_16 
REMARK    5  A    between atoms: C_20  and  C_23 
REMARK    6  A    between atoms: OG1_24  and  CB_28 
REMARK    7  A    between atoms: N_26  and  CA_27 
REMARK    8  A    between atoms: CA_27  and  CB_28 
REMARK    9  A    between atoms: CA_27  and  C_30 
ROOT
HETATM    1  O   UNK A   0      14.606   3.367  92.108  1.00  0.00    -0.388 OA
HETATM    2  N   UNK A   0      11.883   4.172  92.304  1.00  0.00     0.096 N 
HETATM    3  C   UNK A   0      12.502   3.302  93.315  1.00  0.00     0.299 C 
HETATM    4  C   UNK A   0      12.534   3.972  91.002  1.00  0.00     0.299 C 
HETATM    5  C   UNK A   0      14.002   3.577  93.385  1.00  0.00     0.198 C 
HETATM    6  C   UNK A   0      14.032   4.231  91.126  1.00  0.00     0.198 C 
ENDROOT
BRANCH   2   7
HETATM    7  C   UNK A   0      10.446   3.917  92.212  1.00  0.00     0.311 C 
BRANCH   7   8
HETATM    8  C   UNK A   0       9.667   5.157  91.934  1.00  0.00    -0.030 A 
HETATM    9  C   UNK A   0       9.819   6.275  92.756  1.00  0.00     0.010 A 
HETATM   10  C   UNK A   0       9.088   7.435  92.498  1.00  0.00     0.021 A 
HETATM   11  C   UNK A   0       8.208   7.477  91.417  1.00  0.00     0.018 A 
HETATM   12  C   UNK A   0       8.056   6.362  90.595  1.00  0.00     0.021 A 
HETATM   13  C   UNK A   0       8.786   5.202  90.854  1.00  0.00     0.010 A 
BRANCH  11  14
HETATM   14  C   UNK A   0       7.461   8.668  91.151  1.00  0.00    -0.061 C 
HETATM   15  C   UNK A   0       6.832   9.668  90.928  1.00  0.00    -0.061 C 
BRANCH  15  16
HETATM   16  C   UNK A   0       6.085  10.858  90.663  1.00  0.00     0.018 A 
HETATM   17  C   UNK A   0       5.244  11.385  91.643  1.00  0.00     0.022 A 
HETATM   18  C   UNK A   0       4.518  12.548  91.385  1.00  0.00     0.018 A 
HETATM   19  C   UNK A   0       4.650  13.157  90.155  1.00  0.00     0.032 A 
HETATM   20  C   UNK A   0       5.474  12.656  89.170  1.00  0.00     0.018 A 
HETATM   21  C   UNK A   0       6.201  11.493  89.426  1.00  0.00     0.022 A 
BRANCH  19  22
HETATM   22  C   UNK A   0       3.874  14.394  89.880  1.00  0.00     0.252 C 
HETATM   23  O   UNK A   0       4.475  15.448  89.685  1.00  0.00    -0.268 OA
ENDBRANCH  19  22
ENDBRANCH  15  16
ENDBRANCH  11  14
ENDBRANCH   7   8
ENDBRANCH   2   7
TORSDOF 9
ENDMDL
MODEL 7
REMARK VINA RESULT:      -6.6      3.853     10.406
REMARK  9 active torsions:
REMARK  status: ('A' for Active; 'I' for Inactive)
REMARK    1  A    between atoms: N_3  and  C_6 
REMARK    2  A    between atoms: C_6  and  C_9 
REMARK    3  A    between atoms: C_14  and  C_17 
REMARK       I    between atoms: N_26  and  C_15 
REMARK    4  A    between atoms: C_15  and  C_16 
REMARK    5  A    between atoms: C_20  and  C_23 
REMARK    6  A    between atoms: OG1_24  and  CB_28 
REMARK    7  A    between atoms: N_26  and  CA_27 
REMARK    8  A    between atoms: CA_27  and  CB_28 
REMARK    9  A    between atoms: CA_27  and  C_30 
ROOT
HETATM    1  O   UNK A   0      14.615   3.381  92.188  1.00  0.00    -0.388 OA
HETATM    2  N   UNK A   0      11.883   4.178  92.133  1.00  0.00     0.096 N 
HETATM    3  C   UNK A   0      12.404   3.296  93.186  1.00  0.00     0.299 C 
HETATM    4  C   UNK A   0      12.656   3.997  90.897  1.00  0.00     0.299 C 
HETATM    5  C   UNK A   0      13.890   3.573  93.404  1.00  0.00     0.198 C 
HETATM    6  C   UNK A   0      14.134   4.257  91.168  1.00  0.00     0.198 C 
ENDROOT
BRANCH   2   7
HETATM    7  C   UNK A   0      10.462   3.922  91.900  1.00  0.00     0.311 C 
BRANCH   7   8
HETATM    8  C   UNK A   0       9.695   5.173  91.640  1.00  0.00    -0.030 A 
HETATM    9  C   UNK A   0       8.929   5.292  90.480  1.00  0.00     0.010 A 
HETATM   10  C   UNK A   0       8.212   6.463  90.234  1.00  0.00     0.021 A 
HETATM   11  C   UNK A   0       8.261   7.514  91.150  1.00  0.00     0.018 A 
HETATM   12  C   UNK A   0       9.025   7.396  92.309  1.00  0.00     0.021 A 
HETATM   13  C   UNK A   0       9.743   6.225  92.554  1.00  0.00     0.010 A 
BRANCH  11  14
HETATM   14  C   UNK A   0       7.524   8.714  90.899  1.00  0.00    -0.061 C 
HETATM   15  C   UNK A   0       6.905   9.723  90.689  1.00  0.00    -0.061 C 
BRANCH  15  16
HETATM   16  C   UNK A   0       6.169  10.924  90.439  1.00  0.00     0.018 A 
HETATM   17  C   UNK A   0       6.336  11.604  89.233  1.00  0.00     0.022 A 
HETATM   18  C   UNK A   0       5.616  12.773  88.988  1.00  0.00     0.018 A 
HETATM   19  C   UNK A   0       4.746  13.235  89.953  1.00  0.00     0.032 A 
HETATM   20  C   UNK A   0       4.564  12.581  91.153  1.00  0.00     0.018 A 
HETATM   21  C   UNK A   0       5.283  11.412  91.400  1.00  0.00     0.022 A 
BRANCH  19  22
HETATM   22  C   UNK A   0       3.981  14.482  89.692  1.00  0.00     0.252 C 
HETATM   23  O   UNK A   0       4.580  15.554  89.641  1.00  0.00    -0.268 OA
ENDBRANCH  19  22
ENDBRANCH  15  16
ENDBRANCH  11  14
ENDBRANCH   7   8
ENDBRANCH   2   7
TORSDOF 9
ENDMDL
MODEL 8
REMARK VINA RESULT:      -6.4      1.861      2.740
REMARK  9 active torsions:
REMARK  status: ('A' for Active; 'I' for Inactive)
REMARK    1  A    between atoms: N_3  and  C_6 
REMARK    2  A    between atoms: C_6  and  C_9 
REMARK    3  A    between atoms: C_14  and  C_17 
REMARK       I    between atoms: N_26  and  C_15 
REMARK    4  A    between atoms: C_15  and  C_16 
REMARK    5  A    between atoms: C_20  and  C_23 
REMARK    6  A    between atoms: OG1_24  and  CB_28 
REMARK    7  A    between atoms: N_26  and  CA_27 
REMARK    8  A    between atoms: CA_27  and  CB_28 
REMARK    9  A    between atoms: CA_27  and  C_30 
ROOT
HETATM    1  O   UNK A   0       2.448   9.717  88.120  1.00  0.00    -0.388 OA
HETATM    2  N   UNK A   0       3.880   8.146  90.013  1.00  0.00     0.096 N 
HETATM    3  C   UNK A   0       2.607   7.687  89.440  1.00  0.00     0.299 C 
HETATM    4  C   UNK A   0       3.915   9.615  90.049  1.00  0.00     0.299 C 
HETATM    5  C   UNK A   0       2.418   8.290  88.051  1.00  0.00     0.198 C 
HETATM    6  C   UNK A   0       3.694  10.173  88.647  1.00  0.00     0.198 C 
ENDROOT
BRANCH   2   7
HETATM    7  C   UNK A   0       4.078   7.588  91.350  1.00  0.00     0.311 C 
BRANCH   7   8
HETATM    8  C   UNK A   0       5.434   6.995  91.523  1.00  0.00    -0.030 A 
HETATM    9  C   UNK A   0       6.142   6.538  90.410  1.00  0.00     0.010 A 
HETATM   10  C   UNK A   0       7.410   5.981  90.572  1.00  0.00     0.021 A 
HETATM   11  C   UNK A   0       7.971   5.883  91.845  1.00  0.00     0.018 A 
HETATM   12  C   UNK A   0       7.265   6.339  92.956  1.00  0.00     0.021 A 
HETATM   13  C   UNK A   0       5.997   6.896  92.796  1.00  0.00     0.010 A 
BRANCH  11  14
HETATM   14  C   UNK A   0       9.273   5.313  92.009  1.00  0.00    -0.061 C 
HETATM   15  C   UNK A   0      10.367   4.834  92.147  1.00  0.00    -0.061 C 
BRANCH  15  16
HETATM   16  C   UNK A   0      11.669   4.266  92.312  1.00  0.00     0.018 A 
HETATM   17  C   UNK A   0      12.579   4.292  91.255  1.00  0.00     0.022 A 
HETATM   18  C   UNK A   0      13.850   3.740  91.417  1.00  0.00     0.018 A 
HETATM   19  C   UNK A   0      14.182   3.175  92.630  1.00  0.00     0.032 A 
HETATM   20  C   UNK A   0      13.300   3.136  93.690  1.00  0.00     0.018 A 
HETATM   21  C   UNK A   0      12.029   3.688  93.529  1.00  0.00     0.022 A 
BRANCH  19  22
HETATM   22  C   UNK A   0      15.535   2.585  92.801  1.00  0.00     0.252 C 
HETATM   23  O   UNK A   0      16.256   2.993  93.708  1.00  0.00    -0.268 OA
ENDBRANCH  19  22
ENDBRANCH  15  16
ENDBRANCH  11  14
ENDBRANCH   7   8
ENDBRANCH   2   7
TORSDOF 9
ENDMDL
MODEL 9
REMARK VINA RESULT:      -6.3      3.380      4.324
REMARK  9 active torsions:
REMARK  status: ('A' for Active; 'I' for Inactive)
REMARK    1  A    between atoms: N_3  and  C_6 
REMARK    2  A    between atoms: C_6  and  C_9 
REMARK    3  A    between atoms: C_14  and  C_17 
REMARK       I    between atoms: N_26  and  C_15 
REMARK    4  A    between atoms: C_15  and  C_16 
REMARK    5  A    between atoms: C_20  and  C_23 
REMARK    6  A    between atoms: OG1_24  and  CB_28 
REMARK    7  A    between atoms: N_26  and  CA_27 
REMARK    8  A    between atoms: CA_27  and  CB_28 
REMARK    9  A    between atoms: CA_27  and  C_30 
ROOT
HETATM    1  O   UNK A   0       4.268  15.227  89.974  1.00  0.00    -0.388 OA
HETATM    2  N   UNK A   0       4.877  12.487  89.507  1.00  0.00     0.096 N 
HETATM    3  C   UNK A   0       4.892  13.473  88.418  1.00  0.00     0.299 C 
HETATM    4  C   UNK A   0       3.919  12.895  90.544  1.00  0.00     0.299 C 
HETATM    5  C   UNK A   0       5.220  14.855  88.977  1.00  0.00     0.198 C 
HETATM    6  C   UNK A   0       4.269  14.290  91.052  1.00  0.00     0.198 C 
ENDROOT
BRANCH   2   7
HETATM    7  C   UNK A   0       4.553  11.156  88.996  1.00  0.00     0.311 C 
BRANCH   7   8
HETATM    8  C   UNK A   0       5.574  10.138  89.376  1.00  0.00    -0.030 A 
HETATM    9  C   UNK A   0       6.856  10.543  89.750  1.00  0.00     0.010 A 
HETATM   10  C   UNK A   0       7.812   9.591  90.104  1.00  0.00     0.021 A 
HETATM   11  C   UNK A   0       7.486   8.235  90.085  1.00  0.00     0.018 A 
HETATM   12  C   UNK A   0       6.206   7.830  89.711  1.00  0.00     0.021 A 
HETATM   13  C   UNK A   0       5.250   8.781  89.357  1.00  0.00     0.010 A 
BRANCH  11  14
HETATM   14  C   UNK A   0       8.466   7.259  90.450  1.00  0.00    -0.061 C 
HETATM   15  C   UNK A   0       9.291   6.439  90.755  1.00  0.00    -0.061 C 
BRANCH  15  16
HETATM   16  C   UNK A   0      10.271   5.465  91.120  1.00  0.00     0.018 A 
HETATM   17  C   UNK A   0      10.980   4.786  90.128  1.00  0.00     0.022 A 
HETATM   18  C   UNK A   0      11.939   3.837  90.484  1.00  0.00     0.018 A 
HETATM   19  C   UNK A   0      12.167   3.589  91.822  1.00  0.00     0.032 A 
HETATM   20  C   UNK A   0      11.479   4.246  92.820  1.00  0.00     0.018 A 
HETATM   21  C   UNK A   0      10.520   5.195  92.466  1.00  0.00     0.022 A 
BRANCH  19  22
HETATM   22  C   UNK A   0      13.187   2.577  92.200  1.00  0.00     0.252 C 
HETATM   23  O   UNK A   0      14.115   2.906  92.935  1.00  0.00    -0.268 OA
ENDBRANCH  19  22
ENDBRANCH  15  16
ENDBRANCH  11  14
ENDBRANCH   7   8
ENDBRANCH   2   7
TORSDOF 9
ENDMDL
