MODEL 1
REMARK VINA RESULT:      -6.8      0.000      0.000
REMARK  11 active torsions:
REMARK  status: ('A' for Active; 'I' for Inactive)
REMARK    1  A    between atoms: O_2  and  C_18 
REMARK    2  A    between atoms: O_5  and  P_8 
REMARK    3  A    between atoms: N_6  and  C_11 
REMARK    4  A    between atoms: N_7  and  C_15 
REMARK       I    between atoms: N_7  and  C_24 
REMARK    5  A    between atoms: P_8  and  C_23 
REMARK    6  A    between atoms: C_11  and  C_14 
REMARK    7  A    between atoms: C_15  and  C_18 
REMARK    8  A    between atoms: C_15  and  C_23 
REMARK    9  A    between atoms: C_21  and  C_26 
REMARK   10  A    between atoms: C_24  and  C_25 
REMARK   11  A    between atoms: C_29  and  C_32 
ROOT
HETATM    1  O   UNL     1      16.152   4.204  94.001  1.00  0.00     0.000 OA
HETATM    2  N   UNL     1      14.398   2.614  92.421  1.00  0.00     0.000 N 
HETATM    3  C   UNL     1      14.342   4.083  92.389  1.00  0.00     0.000 C 
HETATM    4  C   UNL     1      14.878   2.157  93.732  1.00  0.00     0.000 C 
HETATM    5  C   UNL     1      15.717   4.659  92.718  1.00  0.00     0.000 C 
HETATM    6  C   UNL     1      16.238   2.779  94.031  1.00  0.00     0.000 C 
ENDROOT
BRANCH   2   7
HETATM    7  C   UNL     1      13.088   2.040  92.118  1.00  0.00     0.000 C 
BRANCH   7   8
HETATM    8  C   UNL     1      12.054   3.085  91.866  1.00  0.00     0.000 A 
HETATM    9  C   UNL     1      11.390   3.681  92.939  1.00  0.00     0.000 A 
HETATM   10  C   UNL     1      10.421   4.656  92.704  1.00  0.00     0.000 A 
HETATM   11  C   UNL     1      10.119   5.037  91.397  1.00  0.00     0.000 A 
HETATM   12  C   UNL     1      10.782   4.444  90.325  1.00  0.00     0.000 A 
HETATM   13  C   UNL     1      11.751   3.467  90.559  1.00  0.00     0.000 A 
BRANCH  11  14
HETATM   14  C   UNL     1       9.127   6.040  91.157  1.00  0.00     0.000 C 
HETATM   15  C   UNL     1       8.294   6.883  90.955  1.00  0.00     0.000 C 
BRANCH  15  16
HETATM   16  C   UNL     1       7.304   7.885  90.714  1.00  0.00     0.000 A 
HETATM   17  C   UNL     1       7.692   9.201  90.456  1.00  0.00     0.000 A 
HETATM   18  C   UNL     1       6.725  10.178  90.219  1.00  0.00     0.000 A 
HETATM   19  C   UNL     1       5.394   9.818  90.243  1.00  0.00     0.000 A 
HETATM   20  C   UNL     1       4.985   8.526  90.496  1.00  0.00     0.000 A 
HETATM   21  C   UNL     1       5.950   7.548  90.734  1.00  0.00     0.000 A 
BRANCH  19  22
HETATM   22  C   UNL     1       4.364  10.860  89.992  1.00  0.00     0.000 C 
HETATM   23  O   UNL     1       3.245  10.519  89.619  1.00  0.00     0.000 OA
HETATM   24  N   UNL     1       4.755  12.171  90.230  1.00  0.00     0.000 N 
HETATM   25  HN  UNL     1       5.690  12.375  90.562  1.00  0.00     0.000 HD
BRANCH  24  26
HETATM   26  C   UNL     1       3.864  13.289  90.056  1.00  0.00     0.000 C 
BRANCH  26  27
HETATM   27  C   UNL     1       3.350  13.852  91.387  1.00  0.00     0.000 C 
HETATM   28  C   UNL     1       2.408  12.889  92.103  1.00  0.00     0.000 C 
BRANCH  27  29
HETATM   29  O   UNL     1       4.456  14.140  92.242  1.00  0.00     0.000 OA
HETATM   30  H   UNL     1       4.594  15.102  92.248  1.00  0.00     0.000 HD
ENDBRANCH  27  29
ENDBRANCH  26  27
BRANCH  26  31
HETATM   31  C   UNL     1       4.604  14.354  89.253  1.00  0.00     0.000 C 
HETATM   32  O   UNL     1       4.612  15.543  89.565  1.00  0.00     0.000 OA
BRANCH  31  33
HETATM   33  P   UNL     1       5.214  13.832  88.138  1.00  0.00     0.000 P 
HETATM   34  H   UNL     1       5.483  14.876  87.276  1.00  0.00     0.000 HD
BRANCH  33  35
HETATM   35  O   UNL     1       4.476  12.871  87.432  1.00  0.00     0.000 OA
HETATM   36  H   UNL     1       3.770  13.429  87.063  1.00  0.00     0.000 HD
ENDBRANCH  33  35
ENDBRANCH  31  33
ENDBRANCH  26  31
ENDBRANCH  24  26
ENDBRANCH  19  22
ENDBRANCH  15  16
ENDBRANCH  11  14
ENDBRANCH   7   8
ENDBRANCH   2   7
TORSDOF 11
ENDMDL
