MODEL 1
REMARK VINA RESULT:      -7.5      0.000      0.000
REMARK  9 active torsions:
REMARK  status: ('A' for Active; 'I' for Inactive)
REMARK    1  A    between atoms: N_3  and  C_6 
REMARK    2  A    between atoms: C_6  and  C_9 
REMARK    3  A    between atoms: C_14  and  C_17 
REMARK       I    between atoms: N_26  and  C_15 
REMARK    4  A    between atoms: C_15  and  C_16 
REMARK    5  A    between atoms: C_20  and  C_23 
REMARK    6  A    between atoms: OG1_24  and  CB_28 
REMARK    7  A    between atoms: N_26  and  CA_27 
REMARK    8  A    between atoms: CA_27  and  CB_28 
REMARK    9  A    between atoms: CA_27  and  C_30 
ROOT
HETATM    1  O   UNK A   0       1.862   8.232  87.964  1.00  0.00    -0.388 OA
HETATM    2  N   UNK A   0       4.621   7.579  87.719  1.00  0.00     0.096 N 
HETATM    3  C   UNK A   0       4.166   8.974  87.788  1.00  0.00     0.299 C 
HETATM    4  C   UNK A   0       3.576   6.737  87.121  1.00  0.00     0.299 C 
HETATM    5  C   UNK A   0       2.859   9.053  88.574  1.00  0.00     0.198 C 
HETATM    6  C   UNK A   0       2.284   6.868  87.921  1.00  0.00     0.198 C 
ENDROOT
BRANCH   2   7
HETATM    7  C   UNK A   0       5.867   7.478  86.961  1.00  0.00     0.311 C 
BRANCH   7   8
HETATM    8  C   UNK A   0       6.977   6.895  87.768  1.00  0.00    -0.030 A 
HETATM    9  C   UNK A   0       6.766   6.564  89.107  1.00  0.00     0.010 A 
HETATM   10  C   UNK A   0       7.804   6.021  89.863  1.00  0.00     0.021 A 
HETATM   11  C   UNK A   0       9.053   5.807  89.279  1.00  0.00     0.018 A 
HETATM   12  C   UNK A   0       9.265   6.137  87.942  1.00  0.00     0.021 A 
HETATM   13  C   UNK A   0       8.227   6.681  87.186  1.00  0.00     0.010 A 
BRANCH  11  14
HETATM   14  C   UNK A   0      10.117   5.248  90.054  1.00  0.00    -0.061 C 
HETATM   15  C   UNK A   0      11.012   4.778  90.706  1.00  0.00    -0.061 C 
BRANCH  15  16
HETATM   16  C   UNK A   0      12.075   4.219  91.482  1.00  0.00     0.018 A 
HETATM   17  C   UNK A   0      11.879   3.941  92.835  1.00  0.00     0.022 A 
HETATM   18  C   UNK A   0      12.915   3.393  93.590  1.00  0.00     0.018 A 
HETATM   19  C   UNK A   0      14.123   3.135  92.977  1.00  0.00     0.032 A 
HETATM   20  C   UNK A   0      14.342   3.402  91.641  1.00  0.00     0.018 A 
HETATM   21  C   UNK A   0      13.307   3.950  90.885  1.00  0.00     0.022 A 
BRANCH  19  22
HETATM   22  C   UNK A   0      15.228   2.553  93.782  1.00  0.00     0.252 C 
HETATM   23  O   UNK A   0      16.361   3.012  93.666  1.00  0.00    -0.268 OA
ENDBRANCH  19  22
ENDBRANCH  15  16
ENDBRANCH  11  14
ENDBRANCH   7   8
ENDBRANCH   2   7
TORSDOF 9
ENDMDL
MODEL 2
REMARK VINA RESULT:      -7.5      0.152      1.431
REMARK  9 active torsions:
REMARK  status: ('A' for Active; 'I' for Inactive)
REMARK    1  A    between atoms: N_3  and  C_6 
REMARK    2  A    between atoms: C_6  and  C_9 
REMARK    3  A    between atoms: C_14  and  C_17 
REMARK       I    between atoms: N_26  and  C_15 
REMARK    4  A    between atoms: C_15  and  C_16 
REMARK    5  A    between atoms: C_20  and  C_23 
REMARK    6  A    between atoms: OG1_24  and  CB_28 
REMARK    7  A    between atoms: N_26  and  CA_27 
REMARK    8  A    between atoms: CA_27  and  CB_28 
REMARK    9  A    between atoms: CA_27  and  C_30 
ROOT
HETATM    1  O   UNK A   0       1.935   8.039  87.847  1.00  0.00    -0.388 OA
HETATM    2  N   UNK A   0       4.730   7.524  87.693  1.00  0.00     0.096 N 
HETATM    3  C   UNK A   0       4.204   8.894  87.772  1.00  0.00     0.299 C 
HETATM    4  C   UNK A   0       3.749   6.646  87.040  1.00  0.00     0.299 C 
HETATM    5  C   UNK A   0       2.868   8.894  88.510  1.00  0.00     0.198 C 
HETATM    6  C   UNK A   0       2.424   6.698  87.794  1.00  0.00     0.198 C 
ENDROOT
BRANCH   2   7
HETATM    7  C   UNK A   0       6.006   7.500  86.980  1.00  0.00     0.311 C 
BRANCH   7   8
HETATM    8  C   UNK A   0       7.102   6.905  87.797  1.00  0.00    -0.030 A 
HETATM    9  C   UNK A   0       8.310   6.556  87.193  1.00  0.00     0.010 A 
HETATM   10  C   UNK A   0       9.335   5.997  87.956  1.00  0.00     0.021 A 
HETATM   11  C   UNK A   0       9.152   5.790  89.322  1.00  0.00     0.018 A 
HETATM   12  C   UNK A   0       7.946   6.139  89.927  1.00  0.00     0.021 A 
HETATM   13  C   UNK A   0       6.920   6.696  89.164  1.00  0.00     0.010 A 
BRANCH  11  14
HETATM   14  C   UNK A   0      10.205   5.219  90.105  1.00  0.00    -0.061 C 
HETATM   15  C   UNK A   0      11.089   4.740  90.764  1.00  0.00    -0.061 C 
BRANCH  15  16
HETATM   16  C   UNK A   0      12.141   4.169  91.547  1.00  0.00     0.018 A 
HETATM   17  C   UNK A   0      13.385   3.920  90.967  1.00  0.00     0.022 A 
HETATM   18  C   UNK A   0      14.411   3.365  91.732  1.00  0.00     0.018 A 
HETATM   19  C   UNK A   0      14.171   3.074  93.058  1.00  0.00     0.032 A 
HETATM   20  C   UNK A   0      12.950   3.311  93.655  1.00  0.00     0.018 A 
HETATM   21  C   UNK A   0      11.923   3.865  92.891  1.00  0.00     0.022 A 
BRANCH  19  22
HETATM   22  C   UNK A   0      15.264   2.481  93.872  1.00  0.00     0.252 C 
HETATM   23  O   UNK A   0      16.394   2.956  93.794  1.00  0.00    -0.268 OA
ENDBRANCH  19  22
ENDBRANCH  15  16
ENDBRANCH  11  14
ENDBRANCH   7   8
ENDBRANCH   2   7
TORSDOF 9
ENDMDL
MODEL 3
REMARK VINA RESULT:      -7.5      0.152      1.014
REMARK  9 active torsions:
REMARK  status: ('A' for Active; 'I' for Inactive)
REMARK    1  A    between atoms: N_3  and  C_6 
REMARK    2  A    between atoms: C_6  and  C_9 
REMARK    3  A    between atoms: C_14  and  C_17 
REMARK       I    between atoms: N_26  and  C_15 
REMARK    4  A    between atoms: C_15  and  C_16 
REMARK    5  A    between atoms: C_20  and  C_23 
REMARK    6  A    between atoms: OG1_24  and  CB_28 
REMARK    7  A    between atoms: N_26  and  CA_27 
REMARK    8  A    between atoms: CA_27  and  CB_28 
REMARK    9  A    between atoms: CA_27  and  C_30 
ROOT
HETATM    1  O   UNK A   0       1.893   8.030  87.861  1.00  0.00    -0.388 OA
HETATM    2  N   UNK A   0       4.692   7.538  87.709  1.00  0.00     0.096 N 
HETATM    3  C   UNK A   0       4.157   8.904  87.803  1.00  0.00     0.299 C 
HETATM    4  C   UNK A   0       3.720   6.661  87.042  1.00  0.00     0.299 C 
HETATM    5  C   UNK A   0       2.818   8.884  88.537  1.00  0.00     0.198 C 
HETATM    6  C   UNK A   0       2.393   6.694  87.792  1.00  0.00     0.198 C 
ENDROOT
BRANCH   2   7
HETATM    7  C   UNK A   0       5.971   7.532  86.999  1.00  0.00     0.311 C 
BRANCH   7   8
HETATM    8  C   UNK A   0       7.068   6.934  87.812  1.00  0.00    -0.030 A 
HETATM    9  C   UNK A   0       6.833   6.568  89.138  1.00  0.00     0.010 A 
HETATM   10  C   UNK A   0       7.860   6.010  89.900  1.00  0.00     0.021 A 
HETATM   11  C   UNK A   0       9.120   5.816  89.334  1.00  0.00     0.018 A 
HETATM   12  C   UNK A   0       9.355   6.181  88.010  1.00  0.00     0.021 A 
HETATM   13  C   UNK A   0       8.329   6.739  87.248  1.00  0.00     0.010 A 
BRANCH  11  14
HETATM   14  C   UNK A   0      10.172   5.242  90.115  1.00  0.00    -0.061 C 
HETATM   15  C   UNK A   0      11.056   4.759  90.772  1.00  0.00    -0.061 C 
BRANCH  15  16
HETATM   16  C   UNK A   0      12.107   4.184  91.552  1.00  0.00     0.018 A 
HETATM   17  C   UNK A   0      13.388   4.061  91.012  1.00  0.00     0.022 A 
HETATM   18  C   UNK A   0      14.414   3.503  91.774  1.00  0.00     0.018 A 
HETATM   19  C   UNK A   0      14.137   3.081  93.057  1.00  0.00     0.032 A 
HETATM   20  C   UNK A   0      12.880   3.191  93.614  1.00  0.00     0.018 A 
HETATM   21  C   UNK A   0      11.853   3.749  92.852  1.00  0.00     0.022 A 
BRANCH  19  22
HETATM   22  C   UNK A   0      15.231   2.485  93.868  1.00  0.00     0.252 C 
HETATM   23  O   UNK A   0      16.397   2.752  93.591  1.00  0.00    -0.268 OA
ENDBRANCH  19  22
ENDBRANCH  15  16
ENDBRANCH  11  14
ENDBRANCH   7   8
ENDBRANCH   2   7
TORSDOF 9
ENDMDL
MODEL 4
REMARK VINA RESULT:      -6.9      1.418      1.969
REMARK  9 active torsions:
REMARK  status: ('A' for Active; 'I' for Inactive)
REMARK    1  A    between atoms: N_3  and  C_6 
REMARK    2  A    between atoms: C_6  and  C_9 
REMARK    3  A    between atoms: C_14  and  C_17 
REMARK       I    between atoms: N_26  and  C_15 
REMARK    4  A    between atoms: C_15  and  C_16 
REMARK    5  A    between atoms: C_20  and  C_23 
REMARK    6  A    between atoms: OG1_24  and  CB_28 
REMARK    7  A    between atoms: N_26  and  CA_27 
REMARK    8  A    between atoms: CA_27  and  CB_28 
REMARK    9  A    between atoms: CA_27  and  C_30 
ROOT
HETATM    1  O   UNK A   0       2.737  11.104  89.712  1.00  0.00    -0.388 OA
HETATM    2  N   UNK A   0       4.595   9.186  88.727  1.00  0.00     0.096 N 
HETATM    3  C   UNK A   0       3.794  10.017  87.817  1.00  0.00     0.299 C 
HETATM    4  C   UNK A   0       3.869   8.976  89.987  1.00  0.00     0.299 C 
HETATM    5  C   UNK A   0       3.448  11.340  88.496  1.00  0.00     0.198 C 
HETATM    6  C   UNK A   0       3.520  10.322  90.614  1.00  0.00     0.198 C 
ENDROOT
BRANCH   2   7
HETATM    7  C   UNK A   0       4.929   7.908  88.101  1.00  0.00     0.311 C 
BRANCH   7   8
HETATM    8  C   UNK A   0       6.142   7.281  88.701  1.00  0.00    -0.030 A 
HETATM    9  C   UNK A   0       7.405   7.806  88.425  1.00  0.00     0.010 A 
HETATM   10  C   UNK A   0       8.541   7.219  88.984  1.00  0.00     0.021 A 
HETATM   11  C   UNK A   0       8.412   6.111  89.820  1.00  0.00     0.018 A 
HETATM   12  C   UNK A   0       7.151   5.587  90.097  1.00  0.00     0.021 A 
HETATM   13  C   UNK A   0       6.015   6.172  89.537  1.00  0.00     0.010 A 
BRANCH  11  14
HETATM   14  C   UNK A   0       9.576   5.511  90.395  1.00  0.00    -0.061 C 
HETATM   15  C   UNK A   0      10.555   5.007  90.878  1.00  0.00    -0.061 C 
BRANCH  15  16
HETATM   16  C   UNK A   0      11.719   4.408  91.454  1.00  0.00     0.018 A 
HETATM   17  C   UNK A   0      11.698   3.979  92.781  1.00  0.00     0.022 A 
HETATM   18  C   UNK A   0      12.833   3.393  93.341  1.00  0.00     0.018 A 
HETATM   19  C   UNK A   0      13.962   3.248  92.562  1.00  0.00     0.032 A 
HETATM   20  C   UNK A   0      14.008   3.664  91.248  1.00  0.00     0.018 A 
HETATM   21  C   UNK A   0      12.874   4.251  90.687  1.00  0.00     0.022 A 
BRANCH  19  22
HETATM   22  C   UNK A   0      15.171   2.624  93.160  1.00  0.00     0.252 C 
HETATM   23  O   UNK A   0      15.999   3.338  93.720  1.00  0.00    -0.268 OA
ENDBRANCH  19  22
ENDBRANCH  15  16
ENDBRANCH  11  14
ENDBRANCH   7   8
ENDBRANCH   2   7
TORSDOF 9
ENDMDL
MODEL 5
REMARK VINA RESULT:      -6.6      3.584     10.353
REMARK  9 active torsions:
REMARK  status: ('A' for Active; 'I' for Inactive)
REMARK    1  A    between atoms: N_3  and  C_6 
REMARK    2  A    between atoms: C_6  and  C_9 
REMARK    3  A    between atoms: C_14  and  C_17 
REMARK       I    between atoms: N_26  and  C_15 
REMARK    4  A    between atoms: C_15  and  C_16 
REMARK    5  A    between atoms: C_20  and  C_23 
REMARK    6  A    between atoms: OG1_24  and  CB_28 
REMARK    7  A    between atoms: N_26  and  CA_27 
REMARK    8  A    between atoms: CA_27  and  CB_28 
REMARK    9  A    between atoms: CA_27  and  C_30 
ROOT
HETATM    1  O   UNK A   0      16.245   3.157  93.608  1.00  0.00    -0.388 OA
HETATM    2  N   UNK A   0      13.523   2.903  92.813  1.00  0.00     0.096 N 
HETATM    3  C   UNK A   0      14.350   1.725  93.109  1.00  0.00     0.299 C 
HETATM    4  C   UNK A   0      14.369   4.000  92.322  1.00  0.00     0.299 C 
HETATM    5  C   UNK A   0      15.435   2.095  94.116  1.00  0.00     0.198 C 
HETATM    6  C   UNK A   0      15.453   4.316  93.347  1.00  0.00     0.198 C 
ENDROOT
BRANCH   2   7
HETATM    7  C   UNK A   0      12.482   2.574  91.840  1.00  0.00     0.311 C 
BRANCH   7   8
HETATM    8  C   UNK A   0      11.613   3.743  91.521  1.00  0.00    -0.030 A 
HETATM    9  C   UNK A   0      11.508   4.193  90.205  1.00  0.00     0.010 A 
HETATM   10  C   UNK A   0      10.697   5.288  89.906  1.00  0.00     0.021 A 
HETATM   11  C   UNK A   0       9.990   5.930  90.923  1.00  0.00     0.018 A 
HETATM   12  C   UNK A   0      10.095   5.480  92.237  1.00  0.00     0.021 A 
HETATM   13  C   UNK A   0      10.906   4.386  92.537  1.00  0.00     0.010 A 
BRANCH  11  14
HETATM   14  C   UNK A   0       9.157   7.051  90.615  1.00  0.00    -0.061 C 
HETATM   15  C   UNK A   0       8.456   7.993  90.356  1.00  0.00    -0.061 C 
BRANCH  15  16
HETATM   16  C   UNK A   0       7.622   9.113  90.050  1.00  0.00     0.018 A 
HETATM   17  C   UNK A   0       6.261   9.074  90.357  1.00  0.00     0.022 A 
HETATM   18  C   UNK A   0       5.449  10.168  90.060  1.00  0.00     0.018 A 
HETATM   19  C   UNK A   0       6.014  11.276  89.464  1.00  0.00     0.032 A 
HETATM   20  C   UNK A   0       7.355  11.339  89.149  1.00  0.00     0.018 A 
HETATM   21  C   UNK A   0       8.169  10.245  89.446  1.00  0.00     0.022 A 
BRANCH  19  22
HETATM   22  C   UNK A   0       5.147  12.440  89.146  1.00  0.00     0.252 C 
HETATM   23  O   UNK A   0       5.172  12.914  88.013  1.00  0.00    -0.268 OA
ENDBRANCH  19  22
ENDBRANCH  15  16
ENDBRANCH  11  14
ENDBRANCH   7   8
ENDBRANCH   2   7
TORSDOF 9
ENDMDL
MODEL 6
REMARK VINA RESULT:      -6.6      3.917     10.403
REMARK  9 active torsions:
REMARK  status: ('A' for Active; 'I' for Inactive)
REMARK    1  A    between atoms: N_3  and  C_6 
REMARK    2  A    between atoms: C_6  and  C_9 
REMARK    3  A    between atoms: C_14  and  C_17 
REMARK       I    between atoms: N_26  and  C_15 
REMARK    4  A    between atoms: C_15  and  C_16 
REMARK    5  A    between atoms: C_20  and  C_23 
REMARK    6  A    between atoms: OG1_24  and  CB_28 
REMARK    7  A    between atoms: N_26  and  CA_27 
REMARK    8  A    between atoms: CA_27  and  CB_28 
REMARK    9  A    between atoms: CA_27  and  C_30 
ROOT
HETATM    1  O   UNK A   0      14.588   3.362  92.126  1.00  0.00    -0.388 OA
HETATM    2  N   UNK A   0      11.873   4.194  92.318  1.00  0.00     0.096 N 
HETATM    3  C   UNK A   0      12.493   3.353  93.351  1.00  0.00     0.299 C 
HETATM    4  C   UNK A   0      12.511   3.947  91.017  1.00  0.00     0.299 C 
HETATM    5  C   UNK A   0      13.995   3.619  93.400  1.00  0.00     0.198 C 
HETATM    6  C   UNK A   0      14.012   4.198  91.121  1.00  0.00     0.198 C 
ENDROOT
BRANCH   2   7
HETATM    7  C   UNK A   0      10.433   3.948  92.245  1.00  0.00     0.311 C 
BRANCH   7   8
HETATM    8  C   UNK A   0       9.660   5.188  91.951  1.00  0.00    -0.030 A 
HETATM    9  C   UNK A   0       9.787   6.303  92.781  1.00  0.00     0.010 A 
HETATM   10  C   UNK A   0       9.062   7.462  92.508  1.00  0.00     0.021 A 
HETATM   11  C   UNK A   0       8.212   7.508  91.404  1.00  0.00     0.018 A 
HETATM   12  C   UNK A   0       8.084   6.396  90.574  1.00  0.00     0.021 A 
HETATM   13  C   UNK A   0       8.808   5.236  90.847  1.00  0.00     0.010 A 
BRANCH  11  14
HETATM   14  C   UNK A   0       7.470   8.698  91.122  1.00  0.00    -0.061 C 
HETATM   15  C   UNK A   0       6.845   9.698  90.886  1.00  0.00    -0.061 C 
BRANCH  15  16
HETATM   16  C   UNK A   0       6.104  10.888  90.606  1.00  0.00     0.018 A 
HETATM   17  C   UNK A   0       5.237  11.411  91.567  1.00  0.00     0.022 A 
HETATM   18  C   UNK A   0       4.516  12.573  91.294  1.00  0.00     0.018 A 
HETATM   19  C   UNK A   0       4.677  13.186  90.069  1.00  0.00     0.032 A 
HETATM   20  C   UNK A   0       5.527  12.689  89.103  1.00  0.00     0.018 A 
HETATM   21  C   UNK A   0       6.249  11.527  89.375  1.00  0.00     0.022 A 
BRANCH  19  22
HETATM   22  C   UNK A   0       3.907  14.423  89.779  1.00  0.00     0.252 C 
HETATM   23  O   UNK A   0       4.494  15.502  89.747  1.00  0.00    -0.268 OA
ENDBRANCH  19  22
ENDBRANCH  15  16
ENDBRANCH  11  14
ENDBRANCH   7   8
ENDBRANCH   2   7
TORSDOF 9
ENDMDL
MODEL 7
REMARK VINA RESULT:      -6.4      2.219      2.908
REMARK  9 active torsions:
REMARK  status: ('A' for Active; 'I' for Inactive)
REMARK    1  A    between atoms: N_3  and  C_6 
REMARK    2  A    between atoms: C_6  and  C_9 
REMARK    3  A    between atoms: C_14  and  C_17 
REMARK       I    between atoms: N_26  and  C_15 
REMARK    4  A    between atoms: C_15  and  C_16 
REMARK    5  A    between atoms: C_20  and  C_23 
REMARK    6  A    between atoms: OG1_24  and  CB_28 
REMARK    7  A    between atoms: N_26  and  CA_27 
REMARK    8  A    between atoms: CA_27  and  CB_28 
REMARK    9  A    between atoms: CA_27  and  C_30 
ROOT
HETATM    1  O   UNK A   0       4.363  12.434  88.740  1.00  0.00    -0.388 OA
HETATM    2  N   UNK A   0       4.840   9.798  89.702  1.00  0.00     0.096 N 
HETATM    3  C   UNK A   0       3.550  10.178  89.108  1.00  0.00     0.299 C 
HETATM    4  C   UNK A   0       5.471  10.970  90.325  1.00  0.00     0.299 C 
HETATM    5  C   UNK A   0       3.756  11.308  88.103  1.00  0.00     0.198 C 
HETATM    6  C   UNK A   0       5.631  12.082  89.293  1.00  0.00     0.198 C 
ENDROOT
BRANCH   2   7
HETATM    7  C   UNK A   0       4.664   8.723  90.676  1.00  0.00     0.311 C 
BRANCH   7   8
HETATM    8  C   UNK A   0       5.929   7.975  90.930  1.00  0.00    -0.030 A 
HETATM    9  C   UNK A   0       6.278   7.620  92.234  1.00  0.00     0.010 A 
HETATM   10  C   UNK A   0       7.462   6.923  92.473  1.00  0.00     0.021 A 
HETATM   11  C   UNK A   0       8.295   6.579  91.409  1.00  0.00     0.018 A 
HETATM   12  C   UNK A   0       7.947   6.933  90.107  1.00  0.00     0.021 A 
HETATM   13  C   UNK A   0       6.764   7.631  89.867  1.00  0.00     0.010 A 
BRANCH  11  14
HETATM   14  C   UNK A   0       9.508   5.862  91.654  1.00  0.00    -0.061 C 
HETATM   15  C   UNK A   0      10.528   5.259  91.861  1.00  0.00    -0.061 C 
BRANCH  15  16
HETATM   16  C   UNK A   0      11.741   4.543  92.107  1.00  0.00     0.018 A 
HETATM   17  C   UNK A   0      11.989   4.008  93.371  1.00  0.00     0.022 A 
HETATM   18  C   UNK A   0      13.171   3.306  93.610  1.00  0.00     0.018 A 
HETATM   19  C   UNK A   0      14.076   3.156  92.581  1.00  0.00     0.032 A 
HETATM   20  C   UNK A   0      13.854   3.675  91.323  1.00  0.00     0.018 A 
HETATM   21  C   UNK A   0      12.673   4.377  91.083  1.00  0.00     0.022 A 
BRANCH  19  22
HETATM   22  C   UNK A   0      15.336   2.410  92.837  1.00  0.00     0.252 C 
HETATM   23  O   UNK A   0      16.084   2.787  93.736  1.00  0.00    -0.268 OA
ENDBRANCH  19  22
ENDBRANCH  15  16
ENDBRANCH  11  14
ENDBRANCH   7   8
ENDBRANCH   2   7
TORSDOF 9
ENDMDL
MODEL 8
REMARK VINA RESULT:      -6.4      2.529      3.197
REMARK  9 active torsions:
REMARK  status: ('A' for Active; 'I' for Inactive)
REMARK    1  A    between atoms: N_3  and  C_6 
REMARK    2  A    between atoms: C_6  and  C_9 
REMARK    3  A    between atoms: C_14  and  C_17 
REMARK       I    between atoms: N_26  and  C_15 
REMARK    4  A    between atoms: C_15  and  C_16 
REMARK    5  A    between atoms: C_20  and  C_23 
REMARK    6  A    between atoms: OG1_24  and  CB_28 
REMARK    7  A    between atoms: N_26  and  CA_27 
REMARK    8  A    between atoms: CA_27  and  CB_28 
REMARK    9  A    between atoms: CA_27  and  C_30 
ROOT
HETATM    1  O   UNK A   0       4.020  13.054  90.791  1.00  0.00    -0.388 OA
HETATM    2  N   UNK A   0       5.364  10.735  89.831  1.00  0.00     0.096 N 
HETATM    3  C   UNK A   0       4.890  11.782  88.915  1.00  0.00     0.299 C 
HETATM    4  C   UNK A   0       4.514  10.691  91.028  1.00  0.00     0.299 C 
HETATM    5  C   UNK A   0       4.861  13.127  89.638  1.00  0.00     0.198 C 
HETATM    6  C   UNK A   0       4.493  12.060  91.700  1.00  0.00     0.198 C 
ENDROOT
BRANCH   2   7
HETATM    7  C   UNK A   0       5.390   9.436  89.162  1.00  0.00     0.311 C 
BRANCH   7   8
HETATM    8  C   UNK A   0       6.503   8.570  89.646  1.00  0.00    -0.030 A 
HETATM    9  C   UNK A   0       6.330   7.187  89.716  1.00  0.00     0.010 A 
HETATM   10  C   UNK A   0       7.370   6.376  90.171  1.00  0.00     0.021 A 
HETATM   11  C   UNK A   0       8.583   6.949  90.552  1.00  0.00     0.018 A 
HETATM   12  C   UNK A   0       8.757   8.329  90.482  1.00  0.00     0.021 A 
HETATM   13  C   UNK A   0       7.717   9.141  90.029  1.00  0.00     0.010 A 
BRANCH  11  14
HETATM   14  C   UNK A   0       9.650   6.117  91.016  1.00  0.00    -0.061 C 
HETATM   15  C   UNK A   0      10.547   5.417  91.407  1.00  0.00    -0.061 C 
BRANCH  15  16
HETATM   16  C   UNK A   0      11.613   4.585  91.870  1.00  0.00     0.018 A 
HETATM   17  C   UNK A   0      12.645   4.228  91.002  1.00  0.00     0.022 A 
HETATM   18  C   UNK A   0      13.687   3.418  91.455  1.00  0.00     0.018 A 
HETATM   19  C   UNK A   0      13.674   2.985  92.764  1.00  0.00     0.032 A 
HETATM   20  C   UNK A   0      12.665   3.324  93.641  1.00  0.00     0.018 A 
HETATM   21  C   UNK A   0      11.623   4.134  93.190  1.00  0.00     0.022 A 
BRANCH  19  22
HETATM   22  C   UNK A   0      14.783   2.121  93.246  1.00  0.00     0.252 C 
HETATM   23  O   UNK A   0      15.892   2.616  93.431  1.00  0.00    -0.268 OA
ENDBRANCH  19  22
ENDBRANCH  15  16
ENDBRANCH  11  14
ENDBRANCH   7   8
ENDBRANCH   2   7
TORSDOF 9
ENDMDL
MODEL 9
REMARK VINA RESULT:      -6.3      1.597      2.071
REMARK  9 active torsions:
REMARK  status: ('A' for Active; 'I' for Inactive)
REMARK    1  A    between atoms: N_3  and  C_6 
REMARK    2  A    between atoms: C_6  and  C_9 
REMARK    3  A    between atoms: C_14  and  C_17 
REMARK       I    between atoms: N_26  and  C_15 
REMARK    4  A    between atoms: C_15  and  C_16 
REMARK    5  A    between atoms: C_20  and  C_23 
REMARK    6  A    between atoms: OG1_24  and  CB_28 
REMARK    7  A    between atoms: N_26  and  CA_27 
REMARK    8  A    between atoms: CA_27  and  CB_28 
REMARK    9  A    between atoms: CA_27  and  C_30 
ROOT
HETATM    1  O   UNK A   0       4.084   6.938  86.655  1.00  0.00    -0.388 OA
HETATM    2  N   UNK A   0       4.632   8.573  88.919  1.00  0.00     0.096 N 
HETATM    3  C   UNK A   0       5.714   7.996  88.109  1.00  0.00     0.299 C 
HETATM    4  C   UNK A   0       3.446   7.708  88.865  1.00  0.00     0.299 C 
HETATM    5  C   UNK A   0       5.232   7.788  86.675  1.00  0.00     0.198 C 
HETATM    6  C   UNK A   0       3.017   7.507  87.415  1.00  0.00     0.198 C 
ENDROOT
BRANCH   2   7
HETATM    7  C   UNK A   0       5.069   8.771  90.300  1.00  0.00     0.311 C 
BRANCH   7   8
HETATM    8  C   UNK A   0       6.304   8.001  90.621  1.00  0.00    -0.030 A 
HETATM    9  C   UNK A   0       6.220   6.638  90.909  1.00  0.00     0.010 A 
HETATM   10  C   UNK A   0       7.375   5.917  91.212  1.00  0.00     0.021 A 
HETATM   11  C   UNK A   0       8.613   6.558  91.223  1.00  0.00     0.018 A 
HETATM   12  C   UNK A   0       8.698   7.919  90.935  1.00  0.00     0.021 A 
HETATM   13  C   UNK A   0       7.544   8.640  90.633  1.00  0.00     0.010 A 
BRANCH  11  14
HETATM   14  C   UNK A   0       9.798   5.818  91.531  1.00  0.00    -0.061 C 
HETATM   15  C   UNK A   0      10.794   5.195  91.790  1.00  0.00    -0.061 C 
BRANCH  15  16
HETATM   16  C   UNK A   0      11.978   4.456  92.097  1.00  0.00     0.018 A 
HETATM   17  C   UNK A   0      12.128   3.872  93.355  1.00  0.00     0.022 A 
HETATM   18  C   UNK A   0      13.282   3.149  93.654  1.00  0.00     0.018 A 
HETATM   19  C   UNK A   0      14.260   3.025  92.689  1.00  0.00     0.032 A 
HETATM   20  C   UNK A   0      14.136   3.593  91.438  1.00  0.00     0.018 A 
HETATM   21  C   UNK A   0      12.982   4.316  91.138  1.00  0.00     0.022 A 
BRANCH  19  22
HETATM   22  C   UNK A   0      15.491   2.255  93.009  1.00  0.00     0.252 C 
HETATM   23  O   UNK A   0      16.338   2.757  93.743  1.00  0.00    -0.268 OA
ENDBRANCH  19  22
ENDBRANCH  15  16
ENDBRANCH  11  14
ENDBRANCH   7   8
ENDBRANCH   2   7
TORSDOF 9
ENDMDL
