MODEL 1
REMARK VINA RESULT:      -6.8      0.000      0.000
REMARK  10 active torsions:
REMARK  status: ('A' for Active; 'I' for Inactive)
REMARK    1  A    between atoms: O_2  and  C_18 
REMARK    2  A    between atoms: O_5  and  N_8 
REMARK    3  A    between atoms: N_6  and  C_11 
REMARK    4  A    between atoms: N_7  and  C_15 
REMARK       I    between atoms: N_7  and  C_24 
REMARK       I    between atoms: N_8  and  C_23 
REMARK    5  A    between atoms: C_11  and  C_14 
REMARK    6  A    between atoms: C_15  and  C_18 
REMARK    7  A    between atoms: C_15  and  C_23 
REMARK    8  A    between atoms: C_21  and  C_26 
REMARK    9  A    between atoms: C_24  and  C_25 
REMARK   10  A    between atoms: C_29  and  C_32 
ROOT
HETATM    1  O   UNK     0      16.573   4.519  93.945  0.00  0.00    -0.388 OA
HETATM    2  N   UNK     0      14.784   2.711  92.666  0.00  0.00     0.096 N 
HETATM    3  C   UNK     0      14.669   4.165  92.482  0.00  0.00     0.299 C 
HETATM    4  C   UNK     0      15.365   2.415  93.982  0.00  0.00     0.299 C 
HETATM    5  C   UNK     0      16.038   4.818  92.654  0.00  0.00     0.198 C 
HETATM    6  C   UNK     0      16.717   3.109  94.120  0.00  0.00     0.198 C 
ENDROOT
BRANCH   2   7
HETATM    7  C   UNK     0      13.481   2.066  92.516  0.00  0.00     0.311 C 
BRANCH   7   8
HETATM    8  C   UNK     0      12.384   3.048  92.280  0.00  0.00    -0.030 A 
HETATM    9  C   UNK     0      11.910   3.264  90.985  0.00  0.00     0.010 A 
HETATM   10  C   UNK     0      10.886   4.184  90.762  0.00  0.00     0.021 A 
HETATM   11  C   UNK     0      10.335   4.885  91.834  0.00  0.00     0.018 A 
HETATM   12  C   UNK     0      10.807   4.670  93.127  0.00  0.00     0.021 A 
HETATM   13  C   UNK     0      11.832   3.751  93.350  0.00  0.00     0.010 A 
BRANCH  11  14
HETATM   14  C   UNK     0       9.283   5.827  91.606  0.00  0.00    -0.061 C 
HETATM   15  C   UNK     0       8.399   6.619  91.413  0.00  0.00    -0.061 C 
BRANCH  15  16
HETATM   16  C   UNK     0       7.348   7.561  91.185  0.00  0.00     0.018 A 
HETATM   17  C   UNK     0       6.256   7.208  90.392  0.00  0.00     0.022 A 
HETATM   18  C   UNK     0       5.230   8.126  90.171  0.00  0.00     0.018 A 
HETATM   19  C   UNK     0       5.317   9.376  90.748  0.00  0.00     0.032 A 
HETATM   20  C   UNK     0       6.386   9.749  91.536  0.00  0.00     0.018 A 
HETATM   21  C   UNK     0       7.413   8.832  91.756  0.00  0.00     0.022 A 
BRANCH  19  22
HETATM   22  C   UNK     0       4.225  10.354  90.511  0.00  0.00     0.252 C 
HETATM   23  O   UNK     0       3.058   9.974  90.560  0.00  0.00    -0.268 OA
HETATM   24  N   UNK     0       4.622  11.662  90.270  0.00  0.00    -0.341 N 
HETATM   25  H   UNK     0       5.605  11.908  90.269  0.00  0.00     0.163 HD
BRANCH  24  26
HETATM   26  C   UNK     0       3.680  12.730  90.046  0.00  0.00     0.207 C 
BRANCH  26  27
HETATM   27  C   UNK     0       3.421  13.566  91.305  0.00  0.00     0.146 C 
HETATM   28  C   UNK     0       2.015  13.364  91.861  0.00  0.00     0.042 C 
BRANCH  27  29
HETATM   29  O   UNK     0       4.371  13.221  92.312  0.00  0.00    -0.393 OA
HETATM   30  H   UNK     0       5.011  12.598  91.927  0.00  0.00     0.210 HD
ENDBRANCH  27  29
ENDBRANCH  26  27
BRANCH  26  31
HETATM   31  C   UNK     0       4.216  13.592  88.908  0.00  0.00     0.266 C 
HETATM   32  O   UNK     0       4.443  14.795  89.029  0.00  0.00    -0.269 OA
HETATM   33  N   UNK     0       4.372  12.878  87.744  0.00  0.00    -0.236 N 
HETATM   34  H   UNK     0       4.111  11.912  87.586  0.00  0.00     0.197 HD
BRANCH  33  35
HETATM   35  O   UNK     0       4.825  13.609  86.637  0.00  0.00    -0.287 OA
HETATM   36  H   UNK     0       4.015  14.093  86.403  0.00  0.00     0.244 HD
ENDBRANCH  33  35
ENDBRANCH  26  31
ENDBRANCH  24  26
ENDBRANCH  19  22
ENDBRANCH  15  16
ENDBRANCH  11  14
ENDBRANCH   7   8
ENDBRANCH   2   7
TORSDOF 10
ENDMDL
