MODEL 1
REMARK VINA RESULT:      -7.5      0.000      0.000
REMARK  9 active torsions:
REMARK  status: ('A' for Active; 'I' for Inactive)
REMARK    1  A    between atoms: N_3  and  C_6 
REMARK    2  A    between atoms: C_6  and  C_9 
REMARK    3  A    between atoms: C_14  and  C_17 
REMARK       I    between atoms: N_26  and  C_15 
REMARK    4  A    between atoms: C_15  and  C_16 
REMARK    5  A    between atoms: C_20  and  C_23 
REMARK    6  A    between atoms: OG1_24  and  CB_28 
REMARK    7  A    between atoms: N_26  and  CA_27 
REMARK    8  A    between atoms: CA_27  and  CB_28 
REMARK    9  A    between atoms: CA_27  and  C_30 
ROOT
HETATM    1  O   UNK A   0       1.824   8.060  87.824  1.00  0.00    -0.388 OA
HETATM    2  N   UNK A   0       4.622   7.557  87.677  1.00  0.00     0.096 N 
HETATM    3  C   UNK A   0       4.092   8.924  87.781  1.00  0.00     0.299 C 
HETATM    4  C   UNK A   0       3.648   6.689  87.000  1.00  0.00     0.299 C 
HETATM    5  C   UNK A   0       2.751   8.904  88.510  1.00  0.00     0.198 C 
HETATM    6  C   UNK A   0       2.319   6.722  87.746  1.00  0.00     0.198 C 
ENDROOT
BRANCH   2   7
HETATM    7  C   UNK A   0       5.903   7.551  86.972  1.00  0.00     0.311 C 
BRANCH   7   8
HETATM    8  C   UNK A   0       6.996   6.947  87.785  1.00  0.00    -0.030 A 
HETATM    9  C   UNK A   0       8.236   6.685  87.200  1.00  0.00     0.010 A 
HETATM   10  C   UNK A   0       9.259   6.118  87.960  1.00  0.00     0.021 A 
HETATM   11  C   UNK A   0       9.043   5.816  89.304  1.00  0.00     0.018 A 
HETATM   12  C   UNK A   0       7.806   6.078  89.889  1.00  0.00     0.021 A 
HETATM   13  C   UNK A   0       6.782   6.644  89.130  1.00  0.00     0.010 A 
BRANCH  11  14
HETATM   14  C   UNK A   0      10.094   5.236  90.084  1.00  0.00    -0.061 C 
HETATM   15  C   UNK A   0      10.976   4.749  90.739  1.00  0.00    -0.061 C 
BRANCH  15  16
HETATM   16  C   UNK A   0      12.025   4.170  91.519  1.00  0.00     0.018 A 
HETATM   17  C   UNK A   0      11.785   3.797  92.841  1.00  0.00     0.022 A 
HETATM   18  C   UNK A   0      12.808   3.228  93.601  1.00  0.00     0.018 A 
HETATM   19  C   UNK A   0      14.046   3.046  93.021  1.00  0.00     0.032 A 
HETATM   20  C   UNK A   0      14.308   3.407  91.716  1.00  0.00     0.018 A 
HETATM   21  C   UNK A   0      13.286   3.975  90.955  1.00  0.00     0.022 A 
BRANCH  19  22
HETATM   22  C   UNK A   0      15.136   2.442  93.831  1.00  0.00     0.252 C 
HETATM   23  O   UNK A   0      16.295   2.806  93.643  1.00  0.00    -0.268 OA
ENDBRANCH  19  22
ENDBRANCH  15  16
ENDBRANCH  11  14
ENDBRANCH   7   8
ENDBRANCH   2   7
TORSDOF 9
ENDMDL
MODEL 2
REMARK VINA RESULT:      -7.5      0.039      1.425
REMARK  9 active torsions:
REMARK  status: ('A' for Active; 'I' for Inactive)
REMARK    1  A    between atoms: N_3  and  C_6 
REMARK    2  A    between atoms: C_6  and  C_9 
REMARK    3  A    between atoms: C_14  and  C_17 
REMARK       I    between atoms: N_26  and  C_15 
REMARK    4  A    between atoms: C_15  and  C_16 
REMARK    5  A    between atoms: C_20  and  C_23 
REMARK    6  A    between atoms: OG1_24  and  CB_28 
REMARK    7  A    between atoms: N_26  and  CA_27 
REMARK    8  A    between atoms: CA_27  and  CB_28 
REMARK    9  A    between atoms: CA_27  and  C_30 
ROOT
HETATM    1  O   UNK A   0       1.828   8.041  87.837  1.00  0.00    -0.388 OA
HETATM    2  N   UNK A   0       4.630   7.565  87.685  1.00  0.00     0.096 N 
HETATM    3  C   UNK A   0       4.087   8.926  87.786  1.00  0.00     0.299 C 
HETATM    4  C   UNK A   0       3.664   6.686  87.012  1.00  0.00     0.299 C 
HETATM    5  C   UNK A   0       2.748   8.896  88.518  1.00  0.00     0.198 C 
HETATM    6  C   UNK A   0       2.335   6.708  87.761  1.00  0.00     0.198 C 
ENDROOT
BRANCH   2   7
HETATM    7  C   UNK A   0       5.909   7.569  86.976  1.00  0.00     0.311 C 
BRANCH   7   8
HETATM    8  C   UNK A   0       7.007   6.965  87.784  1.00  0.00    -0.030 A 
HETATM    9  C   UNK A   0       6.791   6.645  89.125  1.00  0.00     0.010 A 
HETATM   10  C   UNK A   0       7.819   6.082  89.882  1.00  0.00     0.021 A 
HETATM   11  C   UNK A   0       9.060   5.836  89.296  1.00  0.00     0.018 A 
HETATM   12  C   UNK A   0       9.277   6.154  87.957  1.00  0.00     0.021 A 
HETATM   13  C   UNK A   0       8.250   6.719  87.200  1.00  0.00     0.010 A 
BRANCH  11  14
HETATM   14  C   UNK A   0      10.113   5.256  90.072  1.00  0.00    -0.061 C 
HETATM   15  C   UNK A   0      10.999   4.769  90.723  1.00  0.00    -0.061 C 
BRANCH  15  16
HETATM   16  C   UNK A   0      12.051   4.190  91.498  1.00  0.00     0.018 A 
HETATM   17  C   UNK A   0      13.315   4.012  90.934  1.00  0.00     0.022 A 
HETATM   18  C   UNK A   0      14.343   3.450  91.691  1.00  0.00     0.018 A 
HETATM   19  C   UNK A   0      14.085   3.079  92.994  1.00  0.00     0.032 A 
HETATM   20  C   UNK A   0      12.845   3.244  93.575  1.00  0.00     0.018 A 
HETATM   21  C   UNK A   0      11.816   3.806  92.819  1.00  0.00     0.022 A 
BRANCH  19  22
HETATM   22  C   UNK A   0      15.179   2.479  93.800  1.00  0.00     0.252 C 
HETATM   23  O   UNK A   0      16.341   2.811  93.576  1.00  0.00    -0.268 OA
ENDBRANCH  19  22
ENDBRANCH  15  16
ENDBRANCH  11  14
ENDBRANCH   7   8
ENDBRANCH   2   7
TORSDOF 9
ENDMDL
MODEL 3
REMARK VINA RESULT:      -7.5      0.075      1.008
REMARK  9 active torsions:
REMARK  status: ('A' for Active; 'I' for Inactive)
REMARK    1  A    between atoms: N_3  and  C_6 
REMARK    2  A    between atoms: C_6  and  C_9 
REMARK    3  A    between atoms: C_14  and  C_17 
REMARK       I    between atoms: N_26  and  C_15 
REMARK    4  A    between atoms: C_15  and  C_16 
REMARK    5  A    between atoms: C_20  and  C_23 
REMARK    6  A    between atoms: OG1_24  and  CB_28 
REMARK    7  A    between atoms: N_26  and  CA_27 
REMARK    8  A    between atoms: CA_27  and  CB_28 
REMARK    9  A    between atoms: CA_27  and  C_30 
ROOT
HETATM    1  O   UNK A   0       1.819   8.038  87.875  1.00  0.00    -0.388 OA
HETATM    2  N   UNK A   0       4.613   7.523  87.708  1.00  0.00     0.096 N 
HETATM    3  C   UNK A   0       4.091   8.889  87.848  1.00  0.00     0.299 C 
HETATM    4  C   UNK A   0       3.633   6.678  87.011  1.00  0.00     0.299 C 
HETATM    5  C   UNK A   0       2.752   8.858  88.580  1.00  0.00     0.198 C 
HETATM    6  C   UNK A   0       2.305   6.700  87.762  1.00  0.00     0.198 C 
ENDROOT
BRANCH   2   7
HETATM    7  C   UNK A   0       5.892   7.527  86.999  1.00  0.00     0.311 C 
BRANCH   7   8
HETATM    8  C   UNK A   0       6.992   6.931  87.810  1.00  0.00    -0.030 A 
HETATM    9  C   UNK A   0       6.750   6.528  89.124  1.00  0.00     0.010 A 
HETATM   10  C   UNK A   0       7.779   5.972  89.884  1.00  0.00     0.021 A 
HETATM   11  C   UNK A   0       9.049   5.818  89.329  1.00  0.00     0.018 A 
HETATM   12  C   UNK A   0       9.292   6.220  88.017  1.00  0.00     0.021 A 
HETATM   13  C   UNK A   0       8.264   6.776  87.257  1.00  0.00     0.010 A 
BRANCH  11  14
HETATM   14  C   UNK A   0      10.105   5.246  90.107  1.00  0.00    -0.061 C 
HETATM   15  C   UNK A   0      10.992   4.766  90.762  1.00  0.00    -0.061 C 
BRANCH  15  16
HETATM   16  C   UNK A   0      12.046   4.195  91.541  1.00  0.00     0.018 A 
HETATM   17  C   UNK A   0      11.815   3.836  92.869  1.00  0.00     0.022 A 
HETATM   18  C   UNK A   0      12.843   3.277  93.628  1.00  0.00     0.018 A 
HETATM   19  C   UNK A   0      14.077   3.089  93.042  1.00  0.00     0.032 A 
HETATM   20  C   UNK A   0      14.331   3.436  91.732  1.00  0.00     0.018 A 
HETATM   21  C   UNK A   0      13.304   3.996  90.972  1.00  0.00     0.022 A 
BRANCH  19  22
HETATM   22  C   UNK A   0      15.173   2.495  93.851  1.00  0.00     0.252 C 
HETATM   23  O   UNK A   0      16.308   2.953  93.752  1.00  0.00    -0.268 OA
ENDBRANCH  19  22
ENDBRANCH  15  16
ENDBRANCH  11  14
ENDBRANCH   7   8
ENDBRANCH   2   7
TORSDOF 9
ENDMDL
MODEL 4
REMARK VINA RESULT:      -6.9      1.537      2.070
REMARK  9 active torsions:
REMARK  status: ('A' for Active; 'I' for Inactive)
REMARK    1  A    between atoms: N_3  and  C_6 
REMARK    2  A    between atoms: C_6  and  C_9 
REMARK    3  A    between atoms: C_14  and  C_17 
REMARK       I    between atoms: N_26  and  C_15 
REMARK    4  A    between atoms: C_15  and  C_16 
REMARK    5  A    between atoms: C_20  and  C_23 
REMARK    6  A    between atoms: OG1_24  and  CB_28 
REMARK    7  A    between atoms: N_26  and  CA_27 
REMARK    8  A    between atoms: CA_27  and  CB_28 
REMARK    9  A    between atoms: CA_27  and  C_30 
ROOT
HETATM    1  O   UNK A   0       2.758  11.234  89.732  1.00  0.00    -0.388 OA
HETATM    2  N   UNK A   0       4.606   9.303  88.754  1.00  0.00     0.096 N 
HETATM    3  C   UNK A   0       3.819  10.144  87.841  1.00  0.00     0.299 C 
HETATM    4  C   UNK A   0       3.870   9.096  90.008  1.00  0.00     0.299 C 
HETATM    5  C   UNK A   0       3.480  11.468  88.521  1.00  0.00     0.198 C 
HETATM    6  C   UNK A   0       3.528  10.443  90.637  1.00  0.00     0.198 C 
ENDROOT
BRANCH   2   7
HETATM    7  C   UNK A   0       4.934   8.024  88.126  1.00  0.00     0.311 C 
BRANCH   7   8
HETATM    8  C   UNK A   0       6.139   7.387  88.731  1.00  0.00    -0.030 A 
HETATM    9  C   UNK A   0       6.015   6.186  89.430  1.00  0.00     0.010 A 
HETATM   10  C   UNK A   0       7.141   5.591  89.998  1.00  0.00     0.021 A 
HETATM   11  C   UNK A   0       8.391   6.195  89.865  1.00  0.00     0.018 A 
HETATM   12  C   UNK A   0       8.516   7.395  89.166  1.00  0.00     0.021 A 
HETATM   13  C   UNK A   0       7.390   7.991  88.599  1.00  0.00     0.010 A 
BRANCH  11  14
HETATM   14  C   UNK A   0       9.546   5.583  90.445  1.00  0.00    -0.061 C 
HETATM   15  C   UNK A   0      10.517   5.069  90.934  1.00  0.00    -0.061 C 
BRANCH  15  16
HETATM   16  C   UNK A   0      11.672   4.458  91.515  1.00  0.00     0.018 A 
HETATM   17  C   UNK A   0      11.627   3.995  92.831  1.00  0.00     0.022 A 
HETATM   18  C   UNK A   0      12.752   3.396  93.396  1.00  0.00     0.018 A 
HETATM   19  C   UNK A   0      13.895   3.272  92.635  1.00  0.00     0.032 A 
HETATM   20  C   UNK A   0      13.965   3.722  91.333  1.00  0.00     0.018 A 
HETATM   21  C   UNK A   0      12.840   4.321  90.766  1.00  0.00     0.022 A 
BRANCH  19  22
HETATM   22  C   UNK A   0      15.094   2.635  93.239  1.00  0.00     0.252 C 
HETATM   23  O   UNK A   0      15.958   3.345  93.748  1.00  0.00    -0.268 OA
ENDBRANCH  19  22
ENDBRANCH  15  16
ENDBRANCH  11  14
ENDBRANCH   7   8
ENDBRANCH   2   7
TORSDOF 9
ENDMDL
MODEL 5
REMARK VINA RESULT:      -6.8      1.475      2.077
REMARK  9 active torsions:
REMARK  status: ('A' for Active; 'I' for Inactive)
REMARK    1  A    between atoms: N_3  and  C_6 
REMARK    2  A    between atoms: C_6  and  C_9 
REMARK    3  A    between atoms: C_14  and  C_17 
REMARK       I    between atoms: N_26  and  C_15 
REMARK    4  A    between atoms: C_15  and  C_16 
REMARK    5  A    between atoms: C_20  and  C_23 
REMARK    6  A    between atoms: OG1_24  and  CB_28 
REMARK    7  A    between atoms: N_26  and  CA_27 
REMARK    8  A    between atoms: CA_27  and  CB_28 
REMARK    9  A    between atoms: CA_27  and  C_30 
ROOT
HETATM    1  O   UNK A   0       2.691  11.098  89.679  1.00  0.00    -0.388 OA
HETATM    2  N   UNK A   0       4.610   9.233  88.711  1.00  0.00     0.096 N 
HETATM    3  C   UNK A   0       3.878  10.124  87.800  1.00  0.00     0.299 C 
HETATM    4  C   UNK A   0       3.797   8.950  89.901  1.00  0.00     0.299 C 
HETATM    5  C   UNK A   0       3.487  11.405  88.533  1.00  0.00     0.198 C 
HETATM    6  C   UNK A   0       3.407  10.257  90.584  1.00  0.00     0.198 C 
ENDROOT
BRANCH   2   7
HETATM    7  C   UNK A   0       4.986   7.994  88.031  1.00  0.00     0.311 C 
BRANCH   7   8
HETATM    8  C   UNK A   0       6.178   7.346  88.650  1.00  0.00    -0.030 A 
HETATM    9  C   UNK A   0       7.447   7.892  88.454  1.00  0.00     0.010 A 
HETATM   10  C   UNK A   0       8.563   7.286  89.030  1.00  0.00     0.021 A 
HETATM   11  C   UNK A   0       8.409   6.135  89.803  1.00  0.00     0.018 A 
HETATM   12  C   UNK A   0       7.142   5.589  89.999  1.00  0.00     0.021 A 
HETATM   13  C   UNK A   0       6.026   6.195  89.422  1.00  0.00     0.010 A 
BRANCH  11  14
HETATM   14  C   UNK A   0       9.554   5.514  90.396  1.00  0.00    -0.061 C 
HETATM   15  C   UNK A   0      10.516   4.992  90.893  1.00  0.00    -0.061 C 
BRANCH  15  16
HETATM   16  C   UNK A   0      11.660   4.372  91.484  1.00  0.00     0.018 A 
HETATM   17  C   UNK A   0      12.838   4.239  90.749  1.00  0.00     0.022 A 
HETATM   18  C   UNK A   0      13.955   3.636  91.327  1.00  0.00     0.018 A 
HETATM   19  C   UNK A   0      13.870   3.181  92.626  1.00  0.00     0.032 A 
HETATM   20  C   UNK A   0      12.718   3.301  93.374  1.00  0.00     0.018 A 
HETATM   21  C   UNK A   0      11.600   3.903  92.797  1.00  0.00     0.022 A 
BRANCH  19  22
HETATM   22  C   UNK A   0      15.060   2.537  93.241  1.00  0.00     0.252 C 
HETATM   23  O   UNK A   0      16.033   3.229  93.531  1.00  0.00    -0.268 OA
ENDBRANCH  19  22
ENDBRANCH  15  16
ENDBRANCH  11  14
ENDBRANCH   7   8
ENDBRANCH   2   7
TORSDOF 9
ENDMDL
MODEL 6
REMARK VINA RESULT:      -6.7      1.156      1.791
REMARK  9 active torsions:
REMARK  status: ('A' for Active; 'I' for Inactive)
REMARK    1  A    between atoms: N_3  and  C_6 
REMARK    2  A    between atoms: C_6  and  C_9 
REMARK    3  A    between atoms: C_14  and  C_17 
REMARK       I    between atoms: N_26  and  C_15 
REMARK    4  A    between atoms: C_15  and  C_16 
REMARK    5  A    between atoms: C_20  and  C_23 
REMARK    6  A    between atoms: OG1_24  and  CB_28 
REMARK    7  A    between atoms: N_26  and  CA_27 
REMARK    8  A    between atoms: CA_27  and  CB_28 
REMARK    9  A    between atoms: CA_27  and  C_30 
ROOT
HETATM    1  O   UNK A   0       1.536   6.998  87.583  1.00  0.00    -0.388 OA
HETATM    2  N   UNK A   0       4.025   7.589  88.832  1.00  0.00     0.096 N 
HETATM    3  C   UNK A   0       2.754   8.087  89.377  1.00  0.00     0.299 C 
HETATM    4  C   UNK A   0       3.916   7.422  87.376  1.00  0.00     0.299 C 
HETATM    5  C   UNK A   0       1.622   7.133  89.002  1.00  0.00     0.198 C 
HETATM    6  C   UNK A   0       2.757   6.485  87.048  1.00  0.00     0.198 C 
ENDROOT
BRANCH   2   7
HETATM    7  C   UNK A   0       5.122   8.494  89.170  1.00  0.00     0.311 C 
BRANCH   7   8
HETATM    8  C   UNK A   0       6.328   7.765  89.658  1.00  0.00    -0.030 A 
HETATM    9  C   UNK A   0       6.652   6.517  89.124  1.00  0.00     0.010 A 
HETATM   10  C   UNK A   0       7.778   5.834  89.581  1.00  0.00     0.021 A 
HETATM   11  C   UNK A   0       8.582   6.400  90.570  1.00  0.00     0.018 A 
HETATM   12  C   UNK A   0       8.260   7.646  91.104  1.00  0.00     0.021 A 
HETATM   13  C   UNK A   0       7.133   8.330  90.648  1.00  0.00     0.010 A 
BRANCH  11  14
HETATM   14  C   UNK A   0       9.739   5.700  91.038  1.00  0.00    -0.061 C 
HETATM   15  C   UNK A   0      10.711   5.112  91.431  1.00  0.00    -0.061 C 
BRANCH  15  16
HETATM   16  C   UNK A   0      11.867   4.411  91.898  1.00  0.00     0.018 A 
HETATM   17  C   UNK A   0      12.948   4.204  91.042  1.00  0.00     0.022 A 
HETATM   18  C   UNK A   0      14.077   3.523  91.499  1.00  0.00     0.018 A 
HETATM   19  C   UNK A   0      14.099   3.066  92.801  1.00  0.00     0.032 A 
HETATM   20  C   UNK A   0      13.042   3.259  93.666  1.00  0.00     0.018 A 
HETATM   21  C   UNK A   0      11.913   3.939  93.210  1.00  0.00     0.022 A 
BRANCH  19  22
HETATM   22  C   UNK A   0      15.300   2.339  93.286  1.00  0.00     0.252 C 
HETATM   23  O   UNK A   0      16.144   2.946  93.942  1.00  0.00    -0.268 OA
ENDBRANCH  19  22
ENDBRANCH  15  16
ENDBRANCH  11  14
ENDBRANCH   7   8
ENDBRANCH   2   7
TORSDOF 9
ENDMDL
MODEL 7
REMARK VINA RESULT:      -6.6      1.690      2.531
REMARK  9 active torsions:
REMARK  status: ('A' for Active; 'I' for Inactive)
REMARK    1  A    between atoms: N_3  and  C_6 
REMARK    2  A    between atoms: C_6  and  C_9 
REMARK    3  A    between atoms: C_14  and  C_17 
REMARK       I    between atoms: N_26  and  C_15 
REMARK    4  A    between atoms: C_15  and  C_16 
REMARK    5  A    between atoms: C_20  and  C_23 
REMARK    6  A    between atoms: OG1_24  and  CB_28 
REMARK    7  A    between atoms: N_26  and  CA_27 
REMARK    8  A    between atoms: CA_27  and  CB_28 
REMARK    9  A    between atoms: CA_27  and  C_30 
ROOT
HETATM    1  O   UNK A   0       5.100  11.858  88.667  1.00  0.00    -0.388 OA
HETATM    2  N   UNK A   0       4.937   9.034  88.980  1.00  0.00     0.096 N 
HETATM    3  C   UNK A   0       6.214   9.748  89.113  1.00  0.00     0.299 C 
HETATM    4  C   UNK A   0       4.048   9.758  88.061  1.00  0.00     0.299 C 
HETATM    5  C   UNK A   0       5.959  11.178  89.584  1.00  0.00     0.198 C 
HETATM    6  C   UNK A   0       3.845  11.186  88.556  1.00  0.00     0.198 C 
ENDROOT
BRANCH   2   7
HETATM    7  C   UNK A   0       5.156   7.664  88.519  1.00  0.00     0.311 C 
BRANCH   7   8
HETATM    8  C   UNK A   0       6.381   7.054  89.112  1.00  0.00    -0.030 A 
HETATM    9  C   UNK A   0       6.396   6.690  90.459  1.00  0.00     0.010 A 
HETATM   10  C   UNK A   0       7.542   6.122  91.015  1.00  0.00     0.021 A 
HETATM   11  C   UNK A   0       8.671   5.916  90.224  1.00  0.00     0.018 A 
HETATM   12  C   UNK A   0       8.657   6.279  88.878  1.00  0.00     0.021 A 
HETATM   13  C   UNK A   0       7.512   6.848  88.322  1.00  0.00     0.010 A 
BRANCH  11  14
HETATM   14  C   UNK A   0       9.846   5.332  90.794  1.00  0.00    -0.061 C 
HETATM   15  C   UNK A   0      10.834   4.841  91.273  1.00  0.00    -0.061 C 
BRANCH  15  16
HETATM   16  C   UNK A   0      12.008   4.257  91.843  1.00  0.00     0.018 A 
HETATM   17  C   UNK A   0      13.187   4.198  91.100  1.00  0.00     0.022 A 
HETATM   18  C   UNK A   0      14.333   3.631  91.658  1.00  0.00     0.018 A 
HETATM   19  C   UNK A   0      14.274   3.137  92.944  1.00  0.00     0.032 A 
HETATM   20  C   UNK A   0      13.121   3.184  93.698  1.00  0.00     0.018 A 
HETATM   21  C   UNK A   0      11.974   3.750  93.142  1.00  0.00     0.022 A 
BRANCH  19  22
HETATM   22  C   UNK A   0      15.495   2.531  93.537  1.00  0.00     0.252 C 
HETATM   23  O   UNK A   0      16.415   3.263  93.894  1.00  0.00    -0.268 OA
ENDBRANCH  19  22
ENDBRANCH  15  16
ENDBRANCH  11  14
ENDBRANCH   7   8
ENDBRANCH   2   7
TORSDOF 9
ENDMDL
MODEL 8
REMARK VINA RESULT:      -6.6      3.965     10.466
REMARK  9 active torsions:
REMARK  status: ('A' for Active; 'I' for Inactive)
REMARK    1  A    between atoms: N_3  and  C_6 
REMARK    2  A    between atoms: C_6  and  C_9 
REMARK    3  A    between atoms: C_14  and  C_17 
REMARK       I    between atoms: N_26  and  C_15 
REMARK    4  A    between atoms: C_15  and  C_16 
REMARK    5  A    between atoms: C_20  and  C_23 
REMARK    6  A    between atoms: OG1_24  and  CB_28 
REMARK    7  A    between atoms: N_26  and  CA_27 
REMARK    8  A    between atoms: CA_27  and  CB_28 
REMARK    9  A    between atoms: CA_27  and  C_30 
ROOT
HETATM    1  O   UNK A   0      14.569   3.355  92.124  1.00  0.00    -0.388 OA
HETATM    2  N   UNK A   0      11.853   4.186  92.306  1.00  0.00     0.096 N 
HETATM    3  C   UNK A   0      12.464   3.328  93.331  1.00  0.00     0.299 C 
HETATM    4  C   UNK A   0      12.502   3.959  91.008  1.00  0.00     0.299 C 
HETATM    5  C   UNK A   0      13.966   3.592  93.398  1.00  0.00     0.198 C 
HETATM    6  C   UNK A   0      14.002   4.207  91.128  1.00  0.00     0.198 C 
ENDROOT
BRANCH   2   7
HETATM    7  C   UNK A   0      10.414   3.942  92.217  1.00  0.00     0.311 C 
BRANCH   7   8
HETATM    8  C   UNK A   0       9.644   5.185  91.928  1.00  0.00    -0.030 A 
HETATM    9  C   UNK A   0       8.661   5.181  90.938  1.00  0.00     0.010 A 
HETATM   10  C   UNK A   0       7.941   6.344  90.665  1.00  0.00     0.021 A 
HETATM   11  C   UNK A   0       8.204   7.510  91.383  1.00  0.00     0.018 A 
HETATM   12  C   UNK A   0       9.186   7.516  92.371  1.00  0.00     0.021 A 
HETATM   13  C   UNK A   0       9.906   6.353  92.645  1.00  0.00     0.010 A 
BRANCH  11  14
HETATM   14  C   UNK A   0       7.465   8.703  91.104  1.00  0.00    -0.061 C 
HETATM   15  C   UNK A   0       6.844   9.705  90.869  1.00  0.00    -0.061 C 
BRANCH  15  16
HETATM   16  C   UNK A   0       6.105  10.897  90.589  1.00  0.00     0.018 A 
HETATM   17  C   UNK A   0       6.248  11.532  89.355  1.00  0.00     0.022 A 
HETATM   18  C   UNK A   0       5.525  12.693  89.082  1.00  0.00     0.018 A 
HETATM   19  C   UNK A   0       4.675  13.192  90.047  1.00  0.00     0.032 A 
HETATM   20  C   UNK A   0       4.517  12.583  91.274  1.00  0.00     0.018 A 
HETATM   21  C   UNK A   0       5.239  11.422  91.549  1.00  0.00     0.022 A 
BRANCH  19  22
HETATM   22  C   UNK A   0       3.907  14.430  89.755  1.00  0.00     0.252 C 
HETATM   23  O   UNK A   0       4.482  15.515  89.790  1.00  0.00    -0.268 OA
ENDBRANCH  19  22
ENDBRANCH  15  16
ENDBRANCH  11  14
ENDBRANCH   7   8
ENDBRANCH   2   7
TORSDOF 9
ENDMDL
MODEL 9
REMARK VINA RESULT:      -6.5      3.403     10.327
REMARK  9 active torsions:
REMARK  status: ('A' for Active; 'I' for Inactive)
REMARK    1  A    between atoms: N_3  and  C_6 
REMARK    2  A    between atoms: C_6  and  C_9 
REMARK    3  A    between atoms: C_14  and  C_17 
REMARK       I    between atoms: N_26  and  C_15 
REMARK    4  A    between atoms: C_15  and  C_16 
REMARK    5  A    between atoms: C_20  and  C_23 
REMARK    6  A    between atoms: OG1_24  and  CB_28 
REMARK    7  A    between atoms: N_26  and  CA_27 
REMARK    8  A    between atoms: CA_27  and  CB_28 
REMARK    9  A    between atoms: CA_27  and  C_30 
ROOT
HETATM    1  O   UNK A   0      16.043   3.079  93.705  1.00  0.00    -0.388 OA
HETATM    2  N   UNK A   0      13.429   2.993  92.581  1.00  0.00     0.096 N 
HETATM    3  C   UNK A   0      14.128   1.768  92.994  1.00  0.00     0.299 C 
HETATM    4  C   UNK A   0      14.404   4.019  92.183  1.00  0.00     0.299 C 
HETATM    5  C   UNK A   0      15.104   2.087  94.124  1.00  0.00     0.198 C 
HETATM    6  C   UNK A   0      15.373   4.284  93.330  1.00  0.00     0.198 C 
ENDROOT
BRANCH   2   7
HETATM    7  C   UNK A   0      12.495   2.714  91.491  1.00  0.00     0.311 C 
BRANCH   7   8
HETATM    8  C   UNK A   0      11.619   3.879  91.181  1.00  0.00    -0.030 A 
HETATM    9  C   UNK A   0      11.279   4.162  89.857  1.00  0.00     0.010 A 
HETATM   10  C   UNK A   0      10.461   5.253  89.566  1.00  0.00     0.021 A 
HETATM   11  C   UNK A   0       9.982   6.060  90.598  1.00  0.00     0.018 A 
HETATM   12  C   UNK A   0      10.321   5.778  91.920  1.00  0.00     0.021 A 
HETATM   13  C   UNK A   0      11.140   4.687  92.212  1.00  0.00     0.010 A 
BRANCH  11  14
HETATM   14  C   UNK A   0       9.141   7.178  90.299  1.00  0.00    -0.061 C 
HETATM   15  C   UNK A   0       8.434   8.117  90.047  1.00  0.00    -0.061 C 
BRANCH  15  16
HETATM   16  C   UNK A   0       7.593   9.235  89.749  1.00  0.00     0.018 A 
HETATM   17  C   UNK A   0       6.210   9.065  89.673  1.00  0.00     0.022 A 
HETATM   18  C   UNK A   0       5.390  10.155  89.384  1.00  0.00     0.018 A 
HETATM   19  C   UNK A   0       5.969  11.390  89.180  1.00  0.00     0.032 A 
HETATM   20  C   UNK A   0       7.333  11.584  89.250  1.00  0.00     0.018 A 
HETATM   21  C   UNK A   0       8.155  10.494  89.538  1.00  0.00     0.022 A 
BRANCH  19  22
HETATM   22  C   UNK A   0       5.095  12.551  88.871  1.00  0.00     0.252 C 
HETATM   23  O   UNK A   0       4.545  12.612  87.775  1.00  0.00    -0.268 OA
ENDBRANCH  19  22
ENDBRANCH  15  16
ENDBRANCH  11  14
ENDBRANCH   7   8
ENDBRANCH   2   7
TORSDOF 9
ENDMDL
