MODEL 1
REMARK VINA RESULT:      -6.2      0.000      0.000
REMARK  12 active torsions:
REMARK  status: ('A' for Active; 'I' for Inactive)
REMARK    1  A    between atoms: O_2  and  C_16 
REMARK    2  A    between atoms: N_5  and  C_9 
REMARK    3  A    between atoms: N_6  and  C_13 
REMARK       I    between atoms: N_6  and  C_22 
REMARK    4  A    between atoms: C_9  and  C_12 
REMARK    5  A    between atoms: C_13  and  C_16 
REMARK    6  A    between atoms: C_13  and  C_21 
REMARK    7  A    between atoms: C_19  and  C_24 
REMARK    8  A    between atoms: C_21  and  C_33 
REMARK    9  A    between atoms: C_22  and  C_23 
REMARK   10  A    between atoms: C_27  and  C_30 
REMARK   11  A    between atoms: C_33  and  C_34 
REMARK   12  A    between atoms: C_34  and  C_35 
ROOT
HETATM    1  O   UNL     1      16.654   3.269  94.000  1.00  0.00    -0.350 OA
HETATM    2  N   UNL     1      14.174   3.052  92.621  1.00  0.00     0.147 N 
HETATM    3  C   UNL     1      15.024   1.878  92.860  1.00  0.00     0.283 C 
HETATM    4  C   UNL     1      15.001   4.263  92.529  1.00  0.00     0.283 C 
HETATM    5  C   UNL     1      15.855   2.091  94.123  1.00  0.00     0.178 C 
HETATM    6  C   UNL     1      15.832   4.419  93.798  1.00  0.00     0.178 C 
ENDROOT
BRANCH   2   7
HETATM    7  C   UNL     1      13.376   2.875  91.409  1.00  0.00     0.277 C 
BRANCH   7   8
HETATM    8  C   UNL     1      12.179   3.763  91.382  1.00  0.00     0.011 A 
HETATM    9  C   UNL     1      11.542   4.110  92.574  1.00  0.00    -0.002 A 
HETATM   10  C   UNL     1      10.421   4.939  92.550  1.00  0.00     0.008 A 
HETATM   11  C   UNL     1       9.939   5.423  91.334  1.00  0.00     0.042 A 
HETATM   12  C   UNL     1      10.574   5.078  90.143  1.00  0.00     0.008 A 
HETATM   13  C   UNL     1      11.695   4.248  90.167  1.00  0.00    -0.002 A 
BRANCH  11  14
HETATM   14  C   UNL     1       8.790   6.276  91.309  1.00  0.00    -0.059 C 
HETATM   15  C   UNL     1       7.824   6.991  91.289  1.00  0.00    -0.059 C 
BRANCH  15  16
HETATM   16  C   UNL     1       6.676   7.843  91.265  1.00  0.00     0.042 A 
HETATM   17  C   UNL     1       5.401   7.291  91.139  1.00  0.00     0.008 A 
HETATM   18  C   UNL     1       4.281   8.122  91.119  1.00  0.00     0.005 A 
HETATM   19  C   UNL     1       4.461   9.485  91.226  1.00  0.00     0.056 A 
HETATM   20  C   UNL     1       5.710  10.056  91.351  1.00  0.00     0.005 A 
HETATM   21  C   UNL     1       6.831   9.226  91.371  1.00  0.00     0.008 A 
BRANCH  19  22
HETATM   22  C   UNL     1       3.267  10.370  91.202  1.00  0.00     0.254 C 
HETATM   23  O   UNL     1       2.163   9.882  90.975  1.00  0.00    -0.268 OA
HETATM   24  N   UNL     1       3.500  11.712  91.470  1.00  0.00    -0.335 N 
HETATM   25  HN  UNL     1       4.437  12.039  91.674  1.00  0.00     0.164 HD
BRANCH  24  26
HETATM   26  C   UNL     1       2.443  12.690  91.508  1.00  0.00     0.166 C 
BRANCH  26  27
HETATM   27  C   UNL     1       2.339  13.400  92.863  1.00  0.00     0.138 C 
HETATM   28  C   UNL     1       3.641  13.343  93.654  1.00  0.00     0.034 C 
BRANCH  27  29
HETATM   29  O   UNL     1       1.980  14.766  92.660  1.00  0.00    -0.383 OA
HETATM   30  H   UNL     1       1.285  14.997  93.301  1.00  0.00     0.210 HD
ENDBRANCH  27  29
ENDBRANCH  26  27
BRANCH  26  31
HETATM   31  C   UNL     1       2.689  13.685  90.378  1.00  0.00     0.181 C 
HETATM   32  O   UNL     1       1.843  14.495  90.004  1.00  0.00    -0.294 OA
BRANCH  31  33
HETATM   33  C   UNL     1       4.054  14.530  90.606  1.00  0.00     0.138 C 
BRANCH  33  34
HETATM   34  C   UNL     1       4.562  14.588  89.289  1.00  0.00     0.208 C 
HETATM   35  O   UNL     1       5.098  15.625  88.971  1.00  0.00    -0.289 OA
BRANCH  34  36
HETATM   36  C   UNL     1       4.815  13.589  88.390  1.00  0.00     0.194 C 
HETATM   37  O   UNL     1       5.082  12.231  88.599  1.00  0.00    -0.185 OA
ENDBRANCH  34  36
ENDBRANCH  33  34
ENDBRANCH  31  33
ENDBRANCH  26  31
ENDBRANCH  24  26
ENDBRANCH  19  22
ENDBRANCH  15  16
ENDBRANCH  11  14
ENDBRANCH   7   8
ENDBRANCH   2   7
TORSDOF 12
ENDMDL
MODEL 2
REMARK VINA RESULT:      -5.8      1.316      1.825
REMARK  12 active torsions:
REMARK  status: ('A' for Active; 'I' for Inactive)
REMARK    1  A    between atoms: O_2  and  C_16 
REMARK    2  A    between atoms: N_5  and  C_9 
REMARK    3  A    between atoms: N_6  and  C_13 
REMARK       I    between atoms: N_6  and  C_22 
REMARK    4  A    between atoms: C_9  and  C_12 
REMARK    5  A    between atoms: C_13  and  C_16 
REMARK    6  A    between atoms: C_13  and  C_21 
REMARK    7  A    between atoms: C_19  and  C_24 
REMARK    8  A    between atoms: C_21  and  C_33 
REMARK    9  A    between atoms: C_22  and  C_23 
REMARK   10  A    between atoms: C_27  and  C_30 
REMARK   11  A    between atoms: C_33  and  C_34 
REMARK   12  A    between atoms: C_34  and  C_35 
ROOT
HETATM    1  O   UNL     1      16.315   4.366  94.068  1.00  0.00    -0.350 OA
HETATM    2  N   UNL     1      14.566   2.695  92.566  1.00  0.00     0.147 N 
HETATM    3  C   UNL     1      14.468   4.160  92.506  1.00  0.00     0.283 C 
HETATM    4  C   UNL     1      15.093   2.279  93.874  1.00  0.00     0.283 C 
HETATM    5  C   UNL     1      15.834   4.782  92.788  1.00  0.00     0.178 C 
HETATM    6  C   UNL     1      16.442   2.945  94.124  1.00  0.00     0.178 C 
ENDROOT
BRANCH   2   7
HETATM    7  C   UNL     1      13.266   2.079  92.309  1.00  0.00     0.277 C 
BRANCH   7   8
HETATM    8  C   UNL     1      12.152   3.069  92.337  1.00  0.00     0.011 A 
HETATM    9  C   UNL     1      11.877   3.776  93.508  1.00  0.00    -0.002 A 
HETATM   10  C   UNL     1      10.834   4.701  93.535  1.00  0.00     0.008 A 
HETATM   11  C   UNL     1      10.068   4.921  92.390  1.00  0.00     0.042 A 
HETATM   12  C   UNL     1      10.342   4.216  91.220  1.00  0.00     0.008 A 
HETATM   13  C   UNL     1      11.384   3.290  91.193  1.00  0.00    -0.002 A 
BRANCH  11  14
HETATM   14  C   UNL     1       8.999   5.872  92.418  1.00  0.00    -0.059 C 
HETATM   15  C   UNL     1       8.101   6.670  92.441  1.00  0.00    -0.059 C 
BRANCH  15  16
HETATM   16  C   UNL     1       7.033   7.621  92.470  1.00  0.00     0.042 A 
HETATM   17  C   UNL     1       7.317   8.987  92.484  1.00  0.00     0.008 A 
HETATM   18  C   UNL     1       6.275   9.914  92.509  1.00  0.00     0.005 A 
HETATM   19  C   UNL     1       4.974   9.455  92.518  1.00  0.00     0.056 A 
HETATM   20  C   UNL     1       4.668   8.110  92.504  1.00  0.00     0.005 A 
HETATM   21  C   UNL     1       5.709   7.182  92.480  1.00  0.00     0.008 A 
BRANCH  19  22
HETATM   22  C   UNL     1       3.865  10.443  92.547  1.00  0.00     0.254 C 
HETATM   23  O   UNL     1       2.858  10.195  93.206  1.00  0.00    -0.268 OA
HETATM   24  N   UNL     1       4.071  11.610  91.824  1.00  0.00    -0.335 N 
HETATM   25  HN  UNL     1       4.940  11.756  91.323  1.00  0.00     0.164 HD
BRANCH  24  26
HETATM   26  C   UNL     1       3.100  12.673  91.774  1.00  0.00     0.166 C 
BRANCH  26  27
HETATM   27  C   UNL     1       3.403  13.802  92.767  1.00  0.00     0.138 C 
HETATM   28  C   UNL     1       2.348  13.915  93.862  1.00  0.00     0.034 C 
BRANCH  27  29
HETATM   29  O   UNL     1       4.676  13.576  93.372  1.00  0.00    -0.383 OA
HETATM   30  H   UNL     1       5.303  14.229  93.016  1.00  0.00     0.210 HD
ENDBRANCH  27  29
ENDBRANCH  26  27
BRANCH  26  31
HETATM   31  C   UNL     1       3.052  13.193  90.341  1.00  0.00     0.181 C 
HETATM   32  O   UNL     1       2.348  14.140  89.995  1.00  0.00    -0.294 OA
BRANCH  31  33
HETATM   33  C   UNL     1       4.535  13.497  89.761  1.00  0.00     0.138 C 
BRANCH  33  34
HETATM   34  C   UNL     1       4.493  12.808  88.529  1.00  0.00     0.208 C 
HETATM   35  O   UNL     1       5.230  13.220  87.663  1.00  0.00    -0.289 OA
BRANCH  34  36
HETATM   36  C   UNL     1       3.979  11.579  88.216  1.00  0.00     0.194 C 
HETATM   37  O   UNL     1       4.188  10.332  88.816  1.00  0.00    -0.185 OA
ENDBRANCH  34  36
ENDBRANCH  33  34
ENDBRANCH  31  33
ENDBRANCH  26  31
ENDBRANCH  24  26
ENDBRANCH  19  22
ENDBRANCH  15  16
ENDBRANCH  11  14
ENDBRANCH   7   8
ENDBRANCH   2   7
TORSDOF 12
ENDMDL
MODEL 3
REMARK VINA RESULT:      -4.8      2.727     12.528
REMARK  12 active torsions:
REMARK  status: ('A' for Active; 'I' for Inactive)
REMARK    1  A    between atoms: O_2  and  C_16 
REMARK    2  A    between atoms: N_5  and  C_9 
REMARK    3  A    between atoms: N_6  and  C_13 
REMARK       I    between atoms: N_6  and  C_22 
REMARK    4  A    between atoms: C_9  and  C_12 
REMARK    5  A    between atoms: C_13  and  C_16 
REMARK    6  A    between atoms: C_13  and  C_21 
REMARK    7  A    between atoms: C_19  and  C_24 
REMARK    8  A    between atoms: C_21  and  C_33 
REMARK    9  A    between atoms: C_22  and  C_23 
REMARK   10  A    between atoms: C_27  and  C_30 
REMARK   11  A    between atoms: C_33  and  C_34 
REMARK   12  A    between atoms: C_34  and  C_35 
ROOT
HETATM    1  O   UNL     1       3.203  14.638  93.904  1.00  0.00    -0.350 OA
HETATM    2  N   UNL     1       3.014  14.798  91.068  1.00  0.00     0.147 N 
HETATM    3  C   UNL     1       2.047  14.025  91.860  1.00  0.00     0.283 C 
HETATM    4  C   UNL     1       4.312  14.834  91.756  1.00  0.00     0.283 C 
HETATM    5  C   UNL     1       1.928  14.624  93.259  1.00  0.00     0.178 C 
HETATM    6  C   UNL     1       4.141  15.413  93.156  1.00  0.00     0.178 C 
ENDROOT
BRANCH   2   7
HETATM    7  C   UNL     1       3.151  14.234  89.727  1.00  0.00     0.277 C 
BRANCH   7   8
HETATM    8  C   UNL     1       4.099  13.084  89.688  1.00  0.00     0.011 A 
HETATM    9  C   UNL     1       3.772  11.890  90.333  1.00  0.00    -0.002 A 
HETATM   10  C   UNL     1       4.659  10.814  90.299  1.00  0.00     0.008 A 
HETATM   11  C   UNL     1       5.870  10.932  89.619  1.00  0.00     0.042 A 
HETATM   12  C   UNL     1       6.198  12.123  88.974  1.00  0.00     0.008 A 
HETATM   13  C   UNL     1       5.312  13.200  89.008  1.00  0.00    -0.002 A 
BRANCH  11  14
HETATM   14  C   UNL     1       6.779   9.827  89.582  1.00  0.00    -0.059 C 
HETATM   15  C   UNL     1       7.543   8.899  89.552  1.00  0.00    -0.059 C 
BRANCH  15  16
HETATM   16  C   UNL     1       8.450   7.794  89.517  1.00  0.00     0.042 A 
HETATM   17  C   UNL     1       9.170   7.522  88.353  1.00  0.00     0.008 A 
HETATM   18  C   UNL     1      10.058   6.446  88.320  1.00  0.00     0.005 A 
HETATM   19  C   UNL     1      10.205   5.668  89.449  1.00  0.00     0.056 A 
HETATM   20  C   UNL     1       9.504   5.916  90.611  1.00  0.00     0.005 A 
HETATM   21  C   UNL     1       8.616   6.992  90.645  1.00  0.00     0.008 A 
BRANCH  19  22
HETATM   22  C   UNL     1      11.149   4.521  89.412  1.00  0.00     0.254 C 
HETATM   23  O   UNL     1      11.299   3.902  88.362  1.00  0.00    -0.268 OA
HETATM   24  N   UNL     1      11.822   4.249  90.595  1.00  0.00    -0.335 N 
HETATM   25  HN  UNL     1      11.665   4.820  91.417  1.00  0.00     0.164 HD
BRANCH  24  26
HETATM   26  C   UNL     1      12.786   3.185  90.712  1.00  0.00     0.166 C 
BRANCH  26  27
HETATM   27  C   UNL     1      14.229   3.699  90.804  1.00  0.00     0.138 C 
HETATM   28  C   UNL     1      15.106   3.184  89.669  1.00  0.00     0.034 C 
BRANCH  27  29
HETATM   29  O   UNL     1      14.229   5.126  90.779  1.00  0.00    -0.383 OA
HETATM   30  H   UNL     1      13.963   5.447  91.658  1.00  0.00     0.210 HD
ENDBRANCH  27  29
ENDBRANCH  26  27
BRANCH  26  31
HETATM   31  C   UNL     1      12.415   2.352  91.934  1.00  0.00     0.181 C 
HETATM   32  O   UNL     1      12.194   1.143  91.878  1.00  0.00    -0.294 OA
BRANCH  31  33
HETATM   33  C   UNL     1      13.467   2.563  93.149  1.00  0.00     0.138 C 
BRANCH  33  34
HETATM   34  C   UNL     1      12.963   3.739  93.746  1.00  0.00     0.208 C 
HETATM   35  O   UNL     1      13.681   4.711  93.697  1.00  0.00    -0.289 OA
BRANCH  34  36
HETATM   36  C   UNL     1      11.690   4.067  94.124  1.00  0.00     0.194 C 
HETATM   37  O   UNL     1      10.845   5.085  93.668  1.00  0.00    -0.185 OA
ENDBRANCH  34  36
ENDBRANCH  33  34
ENDBRANCH  31  33
ENDBRANCH  26  31
ENDBRANCH  24  26
ENDBRANCH  19  22
ENDBRANCH  15  16
ENDBRANCH  11  14
ENDBRANCH   7   8
ENDBRANCH   2   7
TORSDOF 12
ENDMDL
