MODEL 1
REMARK VINA RESULT:      -7.1      0.000      0.000
REMARK  9 active torsions:
REMARK  status: ('A' for Active; 'I' for Inactive)
REMARK    1  A    between atoms: O_2  and  C_17 
REMARK    2  A    between atoms: N_5  and  C_10 
REMARK    3  A    between atoms: N_6  and  C_14 
REMARK       I    between atoms: N_6  and  C_23 
REMARK       I    between atoms: N_7  and  C_22 
REMARK    4  A    between atoms: C_10  and  C_13 
REMARK    5  A    between atoms: C_14  and  C_17 
REMARK    6  A    between atoms: C_14  and  C_22 
REMARK    7  A    between atoms: C_20  and  C_25 
REMARK    8  A    between atoms: C_23  and  C_24 
REMARK    9  A    between atoms: C_28  and  C_31 
ROOT
HETATM    1  O   UNL     1      16.570   4.294  94.124  1.00  0.00    -0.388 OA
HETATM    2  N   UNL     1      14.733   2.695  92.650  1.00  0.00     0.096 N 
HETATM    3  C   UNL     1      14.612   4.159  92.697  1.00  0.00     0.299 C 
HETATM    4  C   UNL     1      15.364   2.203  93.882  1.00  0.00     0.299 C 
HETATM    5  C   UNL     1      15.987   4.785  92.916  1.00  0.00     0.198 C 
HETATM    6  C   UNL     1      16.720   2.875  94.074  1.00  0.00     0.198 C 
ENDROOT
BRANCH   2   7
HETATM    7  C   UNL     1      13.425   2.073  92.452  1.00  0.00     0.311 C 
BRANCH   7   8
HETATM    8  C   UNL     1      12.376   3.064  92.079  1.00  0.00    -0.030 A 
HETATM    9  C   UNL     1      11.657   3.725  93.075  1.00  0.00     0.010 A 
HETATM   10  C   UNL     1      10.673   4.651  92.727  1.00  0.00     0.021 A 
HETATM   11  C   UNL     1      10.411   4.917  91.383  1.00  0.00     0.018 A 
HETATM   12  C   UNL     1      11.129   4.258  90.388  1.00  0.00     0.021 A 
HETATM   13  C   UNL     1      12.112   3.331  90.735  1.00  0.00     0.010 A 
BRANCH  11  14
HETATM   14  C   UNL     1       9.404   5.868  91.027  1.00  0.00    -0.061 C 
HETATM   15  C   UNL     1       8.557   6.668  90.726  1.00  0.00    -0.061 C 
BRANCH  15  16
HETATM   16  C   UNL     1       7.550   7.618  90.369  1.00  0.00     0.018 A 
HETATM   17  C   UNL     1       6.736   7.386  89.261  1.00  0.00     0.022 A 
HETATM   18  C   UNL     1       5.751   8.311  88.914  1.00  0.00     0.018 A 
HETATM   19  C   UNL     1       5.603   9.446  89.684  1.00  0.00     0.032 A 
HETATM   20  C   UNL     1       6.396   9.699  90.784  1.00  0.00     0.018 A 
HETATM   21  C   UNL     1       7.381   8.774  91.131  1.00  0.00     0.022 A 
BRANCH  19  22
HETATM   22  C   UNL     1       4.556  10.433  89.313  1.00  0.00     0.252 C 
HETATM   23  O   UNL     1       3.488  10.032  88.858  1.00  0.00    -0.268 OA
HETATM   24  N   UNL     1       4.869  11.766  89.540  1.00  0.00    -0.342 N 
HETATM   25  H   UNL     1       5.763  12.022  89.943  1.00  0.00     0.163 HD
BRANCH  24  26
HETATM   26  C   UNL     1       3.949  12.838  89.256  1.00  0.00     0.199 C 
BRANCH  26  27
HETATM   27  C   UNL     1       3.361  13.468  90.525  1.00  0.00     0.145 C 
HETATM   28  C   UNL     1       2.549  12.475  91.348  1.00  0.00     0.042 C 
BRANCH  27  29
HETATM   29  O   UNL     1       4.417  13.987  91.333  1.00  0.00    -0.393 OA
HETATM   30  H   UNL     1       5.248  13.564  91.058  1.00  0.00     0.210 HD
ENDBRANCH  27  29
ENDBRANCH  26  27
BRANCH  26  31
HETATM   31  C   UNL     1       4.686  13.873  88.413  1.00  0.00     0.220 C 
HETATM   32  O   UNL     1       4.982  14.990  88.832  1.00  0.00    -0.278 OA
HETATM   33  N   UNL     1       4.937  13.422  87.139  1.00  0.00    -0.271 NA
HETATM   34  H   UNL     1       4.630  12.546  86.735  1.00  0.00     0.127 HD
HETATM   35  H   UNL     1       4.334  13.825  85.938  1.00  0.00     0.127 HD
ENDBRANCH  26  31
ENDBRANCH  24  26
ENDBRANCH  19  22
ENDBRANCH  15  16
ENDBRANCH  11  14
ENDBRANCH   7   8
ENDBRANCH   2   7
TORSDOF 9
ENDMDL
MODEL 2
REMARK VINA RESULT:      -6.4      2.055      3.055
REMARK  9 active torsions:
REMARK  status: ('A' for Active; 'I' for Inactive)
REMARK    1  A    between atoms: O_2  and  C_17 
REMARK    2  A    between atoms: N_5  and  C_10 
REMARK    3  A    between atoms: N_6  and  C_14 
REMARK       I    between atoms: N_6  and  C_23 
REMARK       I    between atoms: N_7  and  C_22 
REMARK    4  A    between atoms: C_10  and  C_13 
REMARK    5  A    between atoms: C_14  and  C_17 
REMARK    6  A    between atoms: C_14  and  C_22 
REMARK    7  A    between atoms: C_20  and  C_25 
REMARK    8  A    between atoms: C_23  and  C_24 
REMARK    9  A    between atoms: C_28  and  C_31 
ROOT
HETATM    1  O   UNL     1      16.917   3.589  94.003  1.00  0.00    -0.388 OA
HETATM    2  N   UNL     1      14.335   3.210  92.867  1.00  0.00     0.096 N 
HETATM    3  C   UNL     1      14.585   4.250  93.874  1.00  0.00     0.299 C 
HETATM    4  C   UNL     1      15.262   2.086  93.063  1.00  0.00     0.299 C 
HETATM    5  C   UNL     1      16.042   4.701  93.801  1.00  0.00     0.198 C 
HETATM    6  C   UNL     1      16.701   2.587  93.009  1.00  0.00     0.198 C 
ENDROOT
BRANCH   2   7
HETATM    7  C   UNL     1      12.947   2.755  92.926  1.00  0.00     0.311 C 
BRANCH   7   8
HETATM    8  C   UNL     1      11.977   3.887  92.918  1.00  0.00    -0.030 A 
HETATM    9  C   UNL     1      11.536   4.436  94.123  1.00  0.00     0.010 A 
HETATM   10  C   UNL     1      10.627   5.494  94.116  1.00  0.00     0.021 A 
HETATM   11  C   UNL     1      10.162   6.004  92.905  1.00  0.00     0.018 A 
HETATM   12  C   UNL     1      10.602   5.458  91.701  1.00  0.00     0.021 A 
HETATM   13  C   UNL     1      11.510   4.399  91.707  1.00  0.00     0.010 A 
BRANCH  11  14
HETATM   14  C   UNL     1       9.232   7.091  92.898  1.00  0.00    -0.061 C 
HETATM   15  C   UNL     1       8.450   8.005  92.893  1.00  0.00    -0.061 C 
BRANCH  15  16
HETATM   16  C   UNL     1       7.521   9.091  92.887  1.00  0.00     0.018 A 
HETATM   17  C   UNL     1       7.049   9.611  94.092  1.00  0.00     0.022 A 
HETATM   18  C   UNL     1       6.145  10.673  94.086  1.00  0.00     0.018 A 
HETATM   19  C   UNL     1       5.733  11.191  92.876  1.00  0.00     0.032 A 
HETATM   20  C   UNL     1       6.185  10.695  91.671  1.00  0.00     0.018 A 
HETATM   21  C   UNL     1       7.089   9.633  91.676  1.00  0.00     0.022 A 
BRANCH  19  22
HETATM   22  C   UNL     1       4.769  12.321  92.870  1.00  0.00     0.252 C 
HETATM   23  O   UNL     1       4.241  12.665  93.925  1.00  0.00    -0.268 OA
HETATM   24  N   UNL     1       4.553  12.930  91.641  1.00  0.00    -0.342 N 
HETATM   25  H   UNL     1       5.044  12.607  90.816  1.00  0.00     0.163 HD
BRANCH  24  26
HETATM   26  C   UNL     1       3.665  14.053  91.477  1.00  0.00     0.199 C 
BRANCH  26  27
HETATM   27  C   UNL     1       3.659  14.601  90.044  1.00  0.00     0.145 C 
HETATM   28  C   UNL     1       5.032  15.096  89.603  1.00  0.00     0.042 C 
BRANCH  27  29
HETATM   29  O   UNL     1       3.223  13.581  89.145  1.00  0.00    -0.393 OA
HETATM   30  H   UNL     1       3.955  13.375  88.540  1.00  0.00     0.210 HD
ENDBRANCH  27  29
ENDBRANCH  26  27
BRANCH  26  31
HETATM   31  C   UNL     1       2.270  13.611  91.908  1.00  0.00     0.220 C 
HETATM   32  O   UNL     1       1.720  12.605  91.464  1.00  0.00    -0.278 OA
HETATM   33  N   UNL     1       1.704  14.483  92.805  1.00  0.00    -0.271 NA
HETATM   34  H   UNL     1       2.091  15.364  93.122  1.00  0.00     0.127 HD
HETATM   35  H   UNL     1       0.648  15.384  92.597  1.00  0.00     0.127 HD
ENDBRANCH  26  31
ENDBRANCH  24  26
ENDBRANCH  19  22
ENDBRANCH  15  16
ENDBRANCH  11  14
ENDBRANCH   7   8
ENDBRANCH   2   7
TORSDOF 9
ENDMDL
MODEL 3
REMARK VINA RESULT:      -6.2      1.725      2.585
REMARK  9 active torsions:
REMARK  status: ('A' for Active; 'I' for Inactive)
REMARK    1  A    between atoms: O_2  and  C_17 
REMARK    2  A    between atoms: N_5  and  C_10 
REMARK    3  A    between atoms: N_6  and  C_14 
REMARK       I    between atoms: N_6  and  C_23 
REMARK       I    between atoms: N_7  and  C_22 
REMARK    4  A    between atoms: C_10  and  C_13 
REMARK    5  A    between atoms: C_14  and  C_17 
REMARK    6  A    between atoms: C_14  and  C_22 
REMARK    7  A    between atoms: C_20  and  C_25 
REMARK    8  A    between atoms: C_23  and  C_24 
REMARK    9  A    between atoms: C_28  and  C_31 
ROOT
HETATM    1  O   UNL     1      16.462   2.965  93.712  1.00  0.00    -0.388 OA
HETATM    2  N   UNL     1      13.771   2.900  92.785  1.00  0.00     0.096 N 
HETATM    3  C   UNL     1      14.522   1.665  93.050  1.00  0.00     0.299 C 
HETATM    4  C   UNL     1      14.693   3.976  92.394  1.00  0.00     0.299 C 
HETATM    5  C   UNL     1      15.577   1.922  94.124  1.00  0.00     0.198 C 
HETATM    6  C   UNL     1      15.743   4.178  93.482  1.00  0.00     0.198 C 
ENDROOT
BRANCH   2   7
HETATM    7  C   UNL     1      12.762   2.680  91.751  1.00  0.00     0.311 C 
BRANCH   7   8
HETATM    8  C   UNL     1      11.751   3.775  91.701  1.00  0.00    -0.030 A 
HETATM    9  C   UNL     1      11.031   4.111  92.848  1.00  0.00     0.010 A 
HETATM   10  C   UNL     1      10.084   5.133  92.802  1.00  0.00     0.021 A 
HETATM   11  C   UNL     1       9.859   5.821  91.610  1.00  0.00     0.018 A 
HETATM   12  C   UNL     1      10.578   5.487  90.464  1.00  0.00     0.021 A 
HETATM   13  C   UNL     1      11.524   4.463  90.509  1.00  0.00     0.010 A 
BRANCH  11  14
HETATM   14  C   UNL     1       8.889   6.872  91.563  1.00  0.00    -0.061 C 
HETATM   15  C   UNL     1       8.073   7.754  91.525  1.00  0.00    -0.061 C 
BRANCH  15  16
HETATM   16  C   UNL     1       7.104   8.804  91.479  1.00  0.00     0.018 A 
HETATM   17  C   UNL     1       6.559   9.196  90.256  1.00  0.00     0.022 A 
HETATM   18  C   UNL     1       5.611  10.219  90.212  1.00  0.00     0.018 A 
HETATM   19  C   UNL     1       5.230  10.825  91.391  1.00  0.00     0.032 A 
HETATM   20  C   UNL     1       5.754  10.456  92.612  1.00  0.00     0.018 A 
HETATM   21  C   UNL     1       6.702   9.434  92.657  1.00  0.00     0.022 A 
BRANCH  19  22
HETATM   22  C   UNL     1       4.222  11.916  91.343  1.00  0.00     0.252 C 
HETATM   23  O   UNL     1       3.060  11.646  91.047  1.00  0.00    -0.268 OA
HETATM   24  N   UNL     1       4.682  13.184  91.670  1.00  0.00    -0.342 N 
HETATM   25  H   UNL     1       5.651  13.326  91.930  1.00  0.00     0.163 HD
BRANCH  24  26
HETATM   26  C   UNL     1       3.821  14.339  91.694  1.00  0.00     0.199 C 
BRANCH  26  27
HETATM   27  C   UNL     1       3.669  14.994  90.315  1.00  0.00     0.145 C 
HETATM   28  C   UNL     1       4.966  15.625  89.822  1.00  0.00     0.042 C 
BRANCH  27  29
HETATM   29  O   UNL     1       3.239  14.017  89.367  1.00  0.00    -0.393 OA
HETATM   30  H   UNL     1       2.674  14.457  88.711  1.00  0.00     0.210 HD
ENDBRANCH  27  29
ENDBRANCH  26  27
BRANCH  26  31
HETATM   31  C   UNL     1       2.471  13.902  92.252  1.00  0.00     0.220 C 
HETATM   32  O   UNL     1       1.425  13.973  91.609  1.00  0.00    -0.278 OA
HETATM   33  N   UNL     1       2.563  13.466  93.552  1.00  0.00    -0.271 NA
HETATM   34  H   UNL     1       3.389  13.479  94.139  1.00  0.00     0.127 HD
HETATM   35  H   UNL     1       2.110  14.102  94.719  1.00  0.00     0.127 HD
ENDBRANCH  26  31
ENDBRANCH  24  26
ENDBRANCH  19  22
ENDBRANCH  15  16
ENDBRANCH  11  14
ENDBRANCH   7   8
ENDBRANCH   2   7
TORSDOF 9
ENDMDL
MODEL 4
REMARK VINA RESULT:      -5.5      2.135      2.955
REMARK  9 active torsions:
REMARK  status: ('A' for Active; 'I' for Inactive)
REMARK    1  A    between atoms: O_2  and  C_17 
REMARK    2  A    between atoms: N_5  and  C_10 
REMARK    3  A    between atoms: N_6  and  C_14 
REMARK       I    between atoms: N_6  and  C_23 
REMARK       I    between atoms: N_7  and  C_22 
REMARK    4  A    between atoms: C_10  and  C_13 
REMARK    5  A    between atoms: C_14  and  C_17 
REMARK    6  A    between atoms: C_14  and  C_22 
REMARK    7  A    between atoms: C_20  and  C_25 
REMARK    8  A    between atoms: C_23  and  C_24 
REMARK    9  A    between atoms: C_28  and  C_31 
ROOT
HETATM    1  O   UNL     1      15.270   4.319  92.748  1.00  0.00    -0.388 OA
HETATM    2  N   UNL     1      12.953   2.749  92.232  1.00  0.00     0.096 N 
HETATM    3  C   UNL     1      13.197   4.013  91.524  1.00  0.00     0.299 C 
HETATM    4  C   UNL     1      13.573   2.790  93.563  1.00  0.00     0.299 C 
HETATM    5  C   UNL     1      14.698   4.277  91.439  1.00  0.00     0.198 C 
HETATM    6  C   UNL     1      15.064   3.082  93.431  1.00  0.00     0.198 C 
ENDROOT
BRANCH   2   7
HETATM    7  C   UNL     1      11.519   2.481  92.334  1.00  0.00     0.311 C 
BRANCH   7   8
HETATM    8  C   UNL     1      10.698   3.714  92.167  1.00  0.00    -0.030 A 
HETATM    9  C   UNL     1      10.747   4.719  93.134  1.00  0.00     0.010 A 
HETATM   10  C   UNL     1       9.977   5.873  92.980  1.00  0.00     0.021 A 
HETATM   11  C   UNL     1       9.161   6.021  91.859  1.00  0.00     0.018 A 
HETATM   12  C   UNL     1       9.112   5.018  90.893  1.00  0.00     0.021 A 
HETATM   13  C   UNL     1       9.881   3.864  91.047  1.00  0.00     0.010 A 
BRANCH  11  14
HETATM   14  C   UNL     1       8.374   7.205  91.700  1.00  0.00    -0.061 C 
HETATM   15  C   UNL     1       7.711   8.199  91.567  1.00  0.00    -0.061 C 
BRANCH  15  16
HETATM   16  C   UNL     1       6.923   9.382  91.409  1.00  0.00     0.018 A 
HETATM   17  C   UNL     1       6.815   9.984  90.155  1.00  0.00     0.022 A 
HETATM   18  C   UNL     1       6.044  11.136  90.001  1.00  0.00     0.018 A 
HETATM   19  C   UNL     1       5.399  11.659  91.102  1.00  0.00     0.032 A 
HETATM   20  C   UNL     1       5.491  11.083  92.351  1.00  0.00     0.018 A 
HETATM   21  C   UNL     1       6.262   9.931  92.507  1.00  0.00     0.022 A 
BRANCH  19  22
HETATM   22  C   UNL     1       4.580  12.888  90.937  1.00  0.00     0.252 C 
HETATM   23  O   UNL     1       4.468  13.389  89.821  1.00  0.00    -0.268 OA
HETATM   24  N   UNL     1       3.970  13.371  92.087  1.00  0.00    -0.342 N 
HETATM   25  H   UNL     1       4.088  12.889  92.971  1.00  0.00     0.163 HD
BRANCH  24  26
HETATM   26  C   UNL     1       3.125  14.538  92.085  1.00  0.00     0.199 C 
BRANCH  26  27
HETATM   27  C   UNL     1       1.646  14.199  91.864  1.00  0.00     0.145 C 
HETATM   28  C   UNL     1       1.274  14.143  90.387  1.00  0.00     0.042 C 
BRANCH  27  29
HETATM   29  O   UNL     1       1.350  12.938  92.464  1.00  0.00    -0.393 OA
HETATM   30  H   UNL     1       1.314  13.061  93.428  1.00  0.00     0.210 HD
ENDBRANCH  27  29
ENDBRANCH  26  27
BRANCH  26  31
HETATM   31  C   UNL     1       3.336  15.267  93.408  1.00  0.00     0.220 C 
HETATM   32  O   UNL     1       4.448  15.473  93.889  1.00  0.00    -0.278 OA
HETATM   33  N   UNL     1       2.148  15.623  93.999  1.00  0.00    -0.271 NA
HETATM   34  H   UNL     1       1.216  15.391  93.676  1.00  0.00     0.127 HD
HETATM   35  H   UNL     1       1.545  15.074  95.142  1.00  0.00     0.127 HD
ENDBRANCH  26  31
ENDBRANCH  24  26
ENDBRANCH  19  22
ENDBRANCH  15  16
ENDBRANCH  11  14
ENDBRANCH   7   8
ENDBRANCH   2   7
TORSDOF 9
ENDMDL
MODEL 5
REMARK VINA RESULT:      -5.5      1.705     12.200
REMARK  9 active torsions:
REMARK  status: ('A' for Active; 'I' for Inactive)
REMARK    1  A    between atoms: O_2  and  C_17 
REMARK    2  A    between atoms: N_5  and  C_10 
REMARK    3  A    between atoms: N_6  and  C_14 
REMARK       I    between atoms: N_6  and  C_23 
REMARK       I    between atoms: N_7  and  C_22 
REMARK    4  A    between atoms: C_10  and  C_13 
REMARK    5  A    between atoms: C_14  and  C_17 
REMARK    6  A    between atoms: C_14  and  C_22 
REMARK    7  A    between atoms: C_20  and  C_25 
REMARK    8  A    between atoms: C_23  and  C_24 
REMARK    9  A    between atoms: C_28  and  C_31 
ROOT
HETATM    1  O   UNL     1       4.565  14.893  91.302  1.00  0.00    -0.388 OA
HETATM    2  N   UNL     1       3.796  13.148  89.188  1.00  0.00     0.096 N 
HETATM    3  C   UNL     1       3.606  12.778  90.597  1.00  0.00     0.299 C 
HETATM    4  C   UNL     1       4.944  14.056  89.057  1.00  0.00     0.299 C 
HETATM    5  C   UNL     1       3.430  14.036  91.444  1.00  0.00     0.198 C 
HETATM    6  C   UNL     1       4.738  15.283  89.939  1.00  0.00     0.198 C 
ENDROOT
BRANCH   2   7
HETATM    7  C   UNL     1       3.977  11.958  88.360  1.00  0.00     0.311 C 
BRANCH   7   8
HETATM    8  C   UNL     1       4.960  11.003  88.945  1.00  0.00    -0.030 A 
HETATM    9  C   UNL     1       6.223  11.453  89.331  1.00  0.00     0.010 A 
HETATM   10  C   UNL     1       7.145  10.560  89.877  1.00  0.00     0.021 A 
HETATM   11  C   UNL     1       6.803   9.217  90.038  1.00  0.00     0.018 A 
HETATM   12  C   UNL     1       5.542   8.767  89.652  1.00  0.00     0.021 A 
HETATM   13  C   UNL     1       4.620   9.659  89.106  1.00  0.00     0.010 A 
BRANCH  11  14
HETATM   14  C   UNL     1       7.748   8.302  90.600  1.00  0.00    -0.061 C 
HETATM   15  C   UNL     1       8.542   7.532  91.071  1.00  0.00    -0.061 C 
BRANCH  15  16
HETATM   16  C   UNL     1       9.487   6.618  91.632  1.00  0.00     0.018 A 
HETATM   17  C   UNL     1       9.896   6.765  92.958  1.00  0.00     0.022 A 
HETATM   18  C   UNL     1      10.816   5.871  93.506  1.00  0.00     0.018 A 
HETATM   19  C   UNL     1      11.305   4.851  92.717  1.00  0.00     0.032 A 
HETATM   20  C   UNL     1      10.917   4.684  91.404  1.00  0.00     0.018 A 
HETATM   21  C   UNL     1       9.997   5.578  90.855  1.00  0.00     0.022 A 
BRANCH  19  22
HETATM   22  C   UNL     1      12.287   3.900  93.301  1.00  0.00     0.252 C 
HETATM   23  O   UNL     1      11.878   2.898  93.882  1.00  0.00    -0.268 OA
HETATM   24  N   UNL     1      13.625   4.217  93.115  1.00  0.00    -0.342 N 
HETATM   25  H   UNL     1      13.888   5.050  92.602  1.00  0.00     0.163 HD
BRANCH  24  26
HETATM   26  C   UNL     1      14.694   3.382  93.600  1.00  0.00     0.199 C 
BRANCH  26  27
HETATM   27  C   UNL     1      15.096   2.291  92.600  1.00  0.00     0.145 C 
HETATM   28  C   UNL     1      14.352   0.981  92.835  1.00  0.00     0.042 C 
BRANCH  27  29
HETATM   29  O   UNL     1      14.834   2.741  91.272  1.00  0.00    -0.393 OA
HETATM   30  H   UNL     1      14.000   2.340  90.973  1.00  0.00     0.210 HD
ENDBRANCH  27  29
ENDBRANCH  26  27
BRANCH  26  31
HETATM   31  C   UNL     1      15.875   4.287  93.938  1.00  0.00     0.220 C 
HETATM   32  O   UNL     1      15.784   5.512  93.997  1.00  0.00    -0.278 OA
HETATM   33  N   UNL     1      17.036   3.577  94.124  1.00  0.00    -0.271 NA
HETATM   34  H   UNL     1      17.165   2.580  93.995  1.00  0.00     0.127 HD
HETATM   35  H   UNL     1      18.161   3.511  93.286  1.00  0.00     0.127 HD
ENDBRANCH  26  31
ENDBRANCH  24  26
ENDBRANCH  19  22
ENDBRANCH  15  16
ENDBRANCH  11  14
ENDBRANCH   7   8
ENDBRANCH   2   7
TORSDOF 9
ENDMDL
MODEL 6
REMARK VINA RESULT:      -5.2      1.869     12.239
REMARK  9 active torsions:
REMARK  status: ('A' for Active; 'I' for Inactive)
REMARK    1  A    between atoms: O_2  and  C_17 
REMARK    2  A    between atoms: N_5  and  C_10 
REMARK    3  A    between atoms: N_6  and  C_14 
REMARK       I    between atoms: N_6  and  C_23 
REMARK       I    between atoms: N_7  and  C_22 
REMARK    4  A    between atoms: C_10  and  C_13 
REMARK    5  A    between atoms: C_14  and  C_17 
REMARK    6  A    between atoms: C_14  and  C_22 
REMARK    7  A    between atoms: C_20  and  C_25 
REMARK    8  A    between atoms: C_23  and  C_24 
REMARK    9  A    between atoms: C_28  and  C_31 
ROOT
HETATM    1  O   UNL     1       5.358  14.510  88.395  1.00  0.00    -0.388 OA
HETATM    2  N   UNL     1       3.537  13.214  90.156  1.00  0.00     0.096 N 
HETATM    3  C   UNL     1       4.316  14.384  90.583  1.00  0.00     0.299 C 
HETATM    4  C   UNL     1       4.272  12.468  89.126  1.00  0.00     0.299 C 
HETATM    5  C   UNL     1       4.637  15.260  89.374  1.00  0.00     0.198 C 
HETATM    6  C   UNL     1       4.595  13.387  87.952  1.00  0.00     0.198 C 
ENDROOT
BRANCH   2   7
HETATM    7  C   UNL     1       3.227  12.354  91.298  1.00  0.00     0.311 C 
BRANCH   7   8
HETATM    8  C   UNL     1       4.281  11.328  91.539  1.00  0.00    -0.030 A 
HETATM    9  C   UNL     1       5.201  11.505  92.573  1.00  0.00     0.010 A 
HETATM   10  C   UNL     1       6.189  10.546  92.798  1.00  0.00     0.021 A 
HETATM   11  C   UNL     1       6.255   9.411  91.991  1.00  0.00     0.018 A 
HETATM   12  C   UNL     1       5.336   9.233  90.959  1.00  0.00     0.021 A 
HETATM   13  C   UNL     1       4.348  10.192  90.732  1.00  0.00     0.010 A 
BRANCH  11  14
HETATM   14  C   UNL     1       7.267   8.427  92.223  1.00  0.00    -0.061 C 
HETATM   15  C   UNL     1       8.117   7.600  92.420  1.00  0.00    -0.061 C 
BRANCH  15  16
HETATM   16  C   UNL     1       9.128   6.616  92.652  1.00  0.00     0.018 A 
HETATM   17  C   UNL     1       9.755   6.542  93.896  1.00  0.00     0.022 A 
HETATM   18  C   UNL     1      10.739   5.580  94.123  1.00  0.00     0.018 A 
HETATM   19  C   UNL     1      11.073   4.714  93.103  1.00  0.00     0.032 A 
HETATM   20  C   UNL     1      10.468   4.767  91.865  1.00  0.00     0.018 A 
HETATM   21  C   UNL     1       9.484   5.728  91.636  1.00  0.00     0.022 A 
BRANCH  19  22
HETATM   22  C   UNL     1      12.123   3.690  93.346  1.00  0.00     0.252 C 
HETATM   23  O   UNL     1      11.792   2.570  93.725  1.00  0.00    -0.268 OA
HETATM   24  N   UNL     1      13.429   4.088  93.094  1.00  0.00    -0.342 N 
HETATM   25  H   UNL     1      13.624   5.023  92.758  1.00  0.00     0.163 HD
BRANCH  24  26
HETATM   26  C   UNL     1      14.554   3.203  93.257  1.00  0.00     0.199 C 
BRANCH  26  27
HETATM   27  C   UNL     1      14.956   2.506  91.951  1.00  0.00     0.145 C 
HETATM   28  C   UNL     1      14.816   3.417  90.737  1.00  0.00     0.042 C 
BRANCH  27  29
HETATM   29  O   UNL     1      16.310   2.063  92.045  1.00  0.00    -0.393 OA
HETATM   30  H   UNL     1      16.308   1.094  92.127  1.00  0.00     0.210 HD
ENDBRANCH  27  29
ENDBRANCH  26  27
BRANCH  26  31
HETATM   31  C   UNL     1      15.709   4.018  93.830  1.00  0.00     0.220 C 
HETATM   32  O   UNL     1      15.661   5.239  93.971  1.00  0.00    -0.278 OA
HETATM   33  N   UNL     1      16.800   3.238  94.123  1.00  0.00    -0.271 NA
HETATM   34  H   UNL     1      16.906   2.247  93.936  1.00  0.00     0.127 HD
HETATM   35  H   UNL     1      18.032   3.173  93.452  1.00  0.00     0.127 HD
ENDBRANCH  26  31
ENDBRANCH  24  26
ENDBRANCH  19  22
ENDBRANCH  15  16
ENDBRANCH  11  14
ENDBRANCH   7   8
ENDBRANCH   2   7
TORSDOF 9
ENDMDL
MODEL 7
REMARK VINA RESULT:      -4.5      2.647     12.265
REMARK  9 active torsions:
REMARK  status: ('A' for Active; 'I' for Inactive)
REMARK    1  A    between atoms: O_2  and  C_17 
REMARK    2  A    between atoms: N_5  and  C_10 
REMARK    3  A    between atoms: N_6  and  C_14 
REMARK       I    between atoms: N_6  and  C_23 
REMARK       I    between atoms: N_7  and  C_22 
REMARK    4  A    between atoms: C_10  and  C_13 
REMARK    5  A    between atoms: C_14  and  C_17 
REMARK    6  A    between atoms: C_14  and  C_22 
REMARK    7  A    between atoms: C_20  and  C_25 
REMARK    8  A    between atoms: C_23  and  C_24 
REMARK    9  A    between atoms: C_28  and  C_31 
ROOT
HETATM    1  O   UNL     1       1.934  13.833  94.123  1.00  0.00    -0.388 OA
HETATM    2  N   UNL     1       2.764  14.317  91.444  1.00  0.00     0.096 N 
HETATM    3  C   UNL     1       2.137  13.047  91.836  1.00  0.00     0.299 C 
HETATM    4  C   UNL     1       3.479  14.899  92.588  1.00  0.00     0.299 C 
HETATM    5  C   UNL     1       1.208  13.274  93.026  1.00  0.00     0.198 C 
HETATM    6  C   UNL     1       2.520  15.083  93.759  1.00  0.00     0.198 C 
ENDROOT
BRANCH   2   7
HETATM    7  C   UNL     1       3.667  14.120  90.311  1.00  0.00     0.311 C 
BRANCH   7   8
HETATM    8  C   UNL     1       4.503  12.895  90.458  1.00  0.00    -0.030 A 
HETATM    9  C   UNL     1       5.191  12.385  89.356  1.00  0.00     0.010 A 
HETATM   10  C   UNL     1       5.972  11.238  89.491  1.00  0.00     0.021 A 
HETATM   11  C   UNL     1       6.067  10.602  90.729  1.00  0.00     0.018 A 
HETATM   12  C   UNL     1       5.381  11.110  91.830  1.00  0.00     0.021 A 
HETATM   13  C   UNL     1       4.599  12.257  91.695  1.00  0.00     0.010 A 
BRANCH  11  14
HETATM   14  C   UNL     1       6.870   9.426  90.868  1.00  0.00    -0.061 C 
HETATM   15  C   UNL     1       7.544   8.437  90.984  1.00  0.00    -0.061 C 
BRANCH  15  16
HETATM   16  C   UNL     1       8.347   7.262  91.122  1.00  0.00     0.018 A 
HETATM   17  C   UNL     1       7.895   6.046  90.609  1.00  0.00     0.022 A 
HETATM   18  C   UNL     1       8.679   4.900  90.742  1.00  0.00     0.018 A 
HETATM   19  C   UNL     1       9.897   4.996  91.383  1.00  0.00     0.032 A 
HETATM   20  C   UNL     1      10.365   6.186  91.898  1.00  0.00     0.018 A 
HETATM   21  C   UNL     1       9.582   7.333  91.767  1.00  0.00     0.022 A 
BRANCH  19  22
HETATM   22  C   UNL     1      10.731   3.775  91.525  1.00  0.00     0.252 C 
HETATM   23  O   UNL     1      10.200   2.671  91.431  1.00  0.00    -0.268 OA
HETATM   24  N   UNL     1      12.087   3.986  91.735  1.00  0.00    -0.342 N 
HETATM   25  H   UNL     1      12.459   4.927  91.777  1.00  0.00     0.163 HD
BRANCH  24  26
HETATM   26  C   UNL     1      13.028   2.903  91.869  1.00  0.00     0.199 C 
BRANCH  26  27
HETATM   27  C   UNL     1      14.378   3.206  91.207  1.00  0.00     0.145 C 
HETATM   28  C   UNL     1      14.497   4.659  90.761  1.00  0.00     0.042 C 
BRANCH  27  29
HETATM   29  O   UNL     1      15.435   2.914  92.121  1.00  0.00    -0.393 OA
HETATM   30  H   UNL     1      15.061   2.423  92.872  1.00  0.00     0.210 HD
ENDBRANCH  27  29
ENDBRANCH  26  27
BRANCH  26  31
HETATM   31  C   UNL     1      13.193   2.610  93.356  1.00  0.00     0.220 C 
HETATM   32  O   UNL     1      14.037   1.831  93.796  1.00  0.00    -0.278 OA
HETATM   33  N   UNL     1      12.274   3.284  94.123  1.00  0.00    -0.271 NA
HETATM   34  H   UNL     1      11.511   3.861  93.789  1.00  0.00     0.127 HD
HETATM   35  H   UNL     1      11.162   2.766  94.807  1.00  0.00     0.127 HD
ENDBRANCH  26  31
ENDBRANCH  24  26
ENDBRANCH  19  22
ENDBRANCH  15  16
ENDBRANCH  11  14
ENDBRANCH   7   8
ENDBRANCH   2   7
TORSDOF 9
ENDMDL
