MODEL 1
REMARK VINA RESULT:      -7.0      0.000      0.000
REMARK  14 active torsions:
REMARK  status: ('A' for Active; 'I' for Inactive)
REMARK    1  A    between atoms: O_2  and  C_18 
REMARK    2  A    between atoms: C_5  and  C_8 
REMARK    3  A    between atoms: C_5  and  O_35 
REMARK    4  A    between atoms: C_5  and  C_36 
REMARK    5  A    between atoms: N_6  and  C_11 
REMARK    6  A    between atoms: N_7  and  C_15 
REMARK       I    between atoms: N_7  and  C_24 
REMARK    7  A    between atoms: C_8  and  C_23 
REMARK    8  A    between atoms: C_11  and  C_14 
REMARK    9  A    between atoms: C_15  and  C_18 
REMARK   10  A    between atoms: C_15  and  C_23 
REMARK   11  A    between atoms: C_21  and  C_26 
REMARK   12  A    between atoms: C_24  and  C_25 
REMARK   13  A    between atoms: C_29  and  C_32 
REMARK   14  A    between atoms: C_36  and  O_39 
ROOT
HETATM    1  O   UNL     1      15.920   4.367  93.944  1.00  0.00    -0.350 OA
HETATM    2  N   UNL     1      14.248   2.715  92.340  1.00  0.00     0.147 N 
HETATM    3  C   UNL     1      14.289   4.172  92.158  1.00  0.00     0.283 C 
HETATM    4  C   UNL     1      14.556   2.373  93.735  1.00  0.00     0.283 C 
HETATM    5  C   UNL     1      15.655   4.708  92.583  1.00  0.00     0.178 C 
HETATM    6  C   UNL     1      15.913   2.951  94.123  1.00  0.00     0.178 C 
ENDROOT
BRANCH   2   7
HETATM    7  C   UNL     1      12.945   2.181  91.949  1.00  0.00     0.277 C 
BRANCH   7   8
HETATM    8  C   UNL     1      11.893   3.236  91.892  1.00  0.00     0.011 A 
HETATM    9  C   UNL     1      11.303   3.565  90.671  1.00  0.00    -0.002 A 
HETATM   10  C   UNL     1      10.320   4.554  90.616  1.00  0.00     0.008 A 
HETATM   11  C   UNL     1       9.927   5.210  91.782  1.00  0.00     0.042 A 
HETATM   12  C   UNL     1      10.515   4.881  93.002  1.00  0.00     0.008 A 
HETATM   13  C   UNL     1      11.499   3.893  93.057  1.00  0.00    -0.002 A 
BRANCH  11  14
HETATM   14  C   UNL     1       8.917   6.222  91.726  1.00  0.00    -0.059 C 
HETATM   15  C   UNL     1       8.068   7.072  91.680  1.00  0.00    -0.059 C 
BRANCH  15  16
HETATM   16  C   UNL     1       7.059   8.084  91.625  1.00  0.00     0.042 A 
HETATM   17  C   UNL     1       7.315   9.352  92.147  1.00  0.00     0.008 A 
HETATM   18  C   UNL     1       6.331  10.339  92.091  1.00  0.00     0.005 A 
HETATM   19  C   UNL     1       5.116  10.037  91.514  1.00  0.00     0.056 A 
HETATM   20  C   UNL     1       4.838   8.791  90.991  1.00  0.00     0.005 A 
HETATM   21  C   UNL     1       5.821   7.803  91.047  1.00  0.00     0.008 A 
BRANCH  19  22
HETATM   22  C   UNL     1       4.067  11.089  91.456  1.00  0.00     0.254 C 
HETATM   23  O   UNL     1       2.893  10.757  91.317  1.00  0.00    -0.268 OA
HETATM   24  N   UNL     1       4.511  12.397  91.592  1.00  0.00    -0.335 N 
HETATM   25  HN  UNL     1       5.495  12.593  91.729  1.00  0.00     0.164 HD
BRANCH  24  26
HETATM   26  C   UNL     1       3.614  13.525  91.581  1.00  0.00     0.169 C 
BRANCH  26  27
HETATM   27  C   UNL     1       3.330  14.071  92.986  1.00  0.00     0.138 C 
HETATM   28  C   UNL     1       4.507  13.878  93.936  1.00  0.00     0.034 C 
BRANCH  27  29
HETATM   29  O   UNL     1       3.023  15.462  92.904  1.00  0.00    -0.383 OA
HETATM   30  H   UNL     1       2.155  15.608  93.316  1.00  0.00     0.210 HD
ENDBRANCH  27  29
ENDBRANCH  26  27
BRANCH  26  31
HETATM   31  C   UNL     1       4.223  14.596  90.682  1.00  0.00     0.194 C 
HETATM   32  O   UNL     1       4.984  15.467  91.100  1.00  0.00    -0.289 OA
BRANCH  31  33
HETATM   33  C   UNL     1       3.792  14.489  89.382  1.00  0.00     0.053 C 
BRANCH  33  34
HETATM   34  C   UNL     1       4.755  14.073  88.452  1.00  0.00     0.220 C 
BRANCH  34  35
HETATM   35  O   UNL     1       5.875  14.383  88.900  1.00  0.00    -0.371 OA
HETATM   36  H   UNL     1       6.393  13.774  88.396  1.00  0.00     0.211 HD
ENDBRANCH  34  35
BRANCH  34  37
HETATM   37  C   UNL     1       4.669  12.708  88.129  1.00  0.00     0.185 C 
HETATM   38  O   UNL     1       5.861  12.660  88.704  1.00  0.00    -0.647 OA
BRANCH  37  39
HETATM   39  O   UNL     1       3.898  11.990  87.565  1.00  0.00    -0.774 OA
HETATM   40  H   UNL     1       2.824  12.314  87.734  1.00  0.00     0.167 HD
ENDBRANCH  37  39
ENDBRANCH  34  37
ENDBRANCH  33  34
ENDBRANCH  31  33
ENDBRANCH  26  31
ENDBRANCH  24  26
ENDBRANCH  19  22
ENDBRANCH  15  16
ENDBRANCH  11  14
ENDBRANCH   7   8
ENDBRANCH   2   7
TORSDOF 14
ENDMDL
MODEL 2
REMARK VINA RESULT:      -5.5      1.428      1.850
REMARK  14 active torsions:
REMARK  status: ('A' for Active; 'I' for Inactive)
REMARK    1  A    between atoms: O_2  and  C_18 
REMARK    2  A    between atoms: C_5  and  C_8 
REMARK    3  A    between atoms: C_5  and  O_35 
REMARK    4  A    between atoms: C_5  and  C_36 
REMARK    5  A    between atoms: N_6  and  C_11 
REMARK    6  A    between atoms: N_7  and  C_15 
REMARK       I    between atoms: N_7  and  C_24 
REMARK    7  A    between atoms: C_8  and  C_23 
REMARK    8  A    between atoms: C_11  and  C_14 
REMARK    9  A    between atoms: C_15  and  C_18 
REMARK   10  A    between atoms: C_15  and  C_23 
REMARK   11  A    between atoms: C_21  and  C_26 
REMARK   12  A    between atoms: C_24  and  C_25 
REMARK   13  A    between atoms: C_29  and  C_32 
REMARK   14  A    between atoms: C_36  and  O_39 
ROOT
HETATM    1  O   UNL     1      16.833   3.553  94.031  1.00  0.00    -0.350 OA
HETATM    2  N   UNL     1      14.481   3.035  92.513  1.00  0.00     0.147 N 
HETATM    3  C   UNL     1      14.417   3.675  93.834  1.00  0.00     0.283 C 
HETATM    4  C   UNL     1      15.655   2.154  92.437  1.00  0.00     0.283 C 
HETATM    5  C   UNL     1      15.712   4.436  94.104  1.00  0.00     0.178 C 
HETATM    6  C   UNL     1      16.920   2.950  92.739  1.00  0.00     0.178 C 
ENDROOT
BRANCH   2   7
HETATM    7  C   UNL     1      13.254   2.291  92.238  1.00  0.00     0.277 C 
BRANCH   7   8
HETATM    8  C   UNL     1      12.059   3.178  92.148  1.00  0.00     0.011 A 
HETATM    9  C   UNL     1      11.664   3.928  93.257  1.00  0.00    -0.002 A 
HETATM   10  C   UNL     1      10.546   4.757  93.175  1.00  0.00     0.008 A 
HETATM   11  C   UNL     1       9.824   4.837  91.985  1.00  0.00     0.042 A 
HETATM   12  C   UNL     1      10.217   4.089  90.877  1.00  0.00     0.008 A 
HETATM   13  C   UNL     1      11.335   3.259  90.959  1.00  0.00    -0.002 A 
BRANCH  11  14
HETATM   14  C   UNL     1       8.677   5.689  91.900  1.00  0.00    -0.059 C 
HETATM   15  C   UNL     1       7.714   6.405  91.830  1.00  0.00    -0.059 C 
BRANCH  15  16
HETATM   16  C   UNL     1       6.568   7.256  91.746  1.00  0.00     0.042 A 
HETATM   17  C   UNL     1       6.048   7.604  90.499  1.00  0.00     0.008 A 
HETATM   18  C   UNL     1       4.929   8.432  90.418  1.00  0.00     0.005 A 
HETATM   19  C   UNL     1       4.354   8.893  91.585  1.00  0.00     0.056 A 
HETATM   20  C   UNL     1       4.849   8.563  92.829  1.00  0.00     0.005 A 
HETATM   21  C   UNL     1       5.969   7.735  92.911  1.00  0.00     0.008 A 
BRANCH  19  22
HETATM   22  C   UNL     1       3.163   9.776  91.498  1.00  0.00     0.254 C 
HETATM   23  O   UNL     1       2.076   9.290  91.197  1.00  0.00    -0.268 OA
HETATM   24  N   UNL     1       3.376  11.115  91.796  1.00  0.00    -0.335 N 
HETATM   25  HN  UNL     1       4.298  11.441  92.061  1.00  0.00     0.164 HD
BRANCH  24  26
HETATM   26  C   UNL     1       2.317  12.092  91.779  1.00  0.00     0.169 C 
BRANCH  26  27
HETATM   27  C   UNL     1       1.967  12.611  93.179  1.00  0.00     0.138 C 
HETATM   28  C   UNL     1       1.529  11.497  94.123  1.00  0.00     0.034 C 
BRANCH  27  29
HETATM   29  O   UNL     1       3.100  13.274  93.739  1.00  0.00    -0.383 OA
HETATM   30  H   UNL     1       3.407  12.760  94.505  1.00  0.00     0.210 HD
ENDBRANCH  27  29
ENDBRANCH  26  27
BRANCH  26  31
HETATM   31  C   UNL     1       2.745  13.228  90.857  1.00  0.00     0.194 C 
HETATM   32  O   UNL     1       2.592  14.415  91.140  1.00  0.00    -0.289 OA
BRANCH  31  33
HETATM   33  C   UNL     1       3.276  12.767  89.677  1.00  0.00     0.053 C 
BRANCH  33  34
HETATM   34  C   UNL     1       4.426  13.429  89.225  1.00  0.00     0.220 C 
BRANCH  34  35
HETATM   35  O   UNL     1       5.311  13.288  90.091  1.00  0.00    -0.371 OA
HETATM   36  H   UNL     1       4.750  13.064  90.818  1.00  0.00     0.211 HD
ENDBRANCH  34  35
BRANCH  34  37
HETATM   37  C   UNL     1       4.852  13.008  87.954  1.00  0.00     0.185 C 
HETATM   38  O   UNL     1       5.135  11.885  88.596  1.00  0.00    -0.647 OA
BRANCH  37  39
HETATM   39  O   UNL     1       4.944  13.482  86.861  1.00  0.00    -0.774 OA
HETATM   40  H   UNL     1       4.542  12.780  86.065  1.00  0.00     0.167 HD
ENDBRANCH  37  39
ENDBRANCH  34  37
ENDBRANCH  33  34
ENDBRANCH  31  33
ENDBRANCH  26  31
ENDBRANCH  24  26
ENDBRANCH  19  22
ENDBRANCH  15  16
ENDBRANCH  11  14
ENDBRANCH   7   8
ENDBRANCH   2   7
TORSDOF 14
ENDMDL
MODEL 3
REMARK VINA RESULT:      -4.7      2.727     12.556
REMARK  14 active torsions:
REMARK  status: ('A' for Active; 'I' for Inactive)
REMARK    1  A    between atoms: O_2  and  C_18 
REMARK    2  A    between atoms: C_5  and  C_8 
REMARK    3  A    between atoms: C_5  and  O_35 
REMARK    4  A    between atoms: C_5  and  C_36 
REMARK    5  A    between atoms: N_6  and  C_11 
REMARK    6  A    between atoms: N_7  and  C_15 
REMARK       I    between atoms: N_7  and  C_24 
REMARK    7  A    between atoms: C_8  and  C_23 
REMARK    8  A    between atoms: C_11  and  C_14 
REMARK    9  A    between atoms: C_15  and  C_18 
REMARK   10  A    between atoms: C_15  and  C_23 
REMARK   11  A    between atoms: C_21  and  C_26 
REMARK   12  A    between atoms: C_24  and  C_25 
REMARK   13  A    between atoms: C_29  and  C_32 
REMARK   14  A    between atoms: C_36  and  O_39 
ROOT
HETATM    1  O   UNL     1       3.161  14.669  94.077  1.00  0.00    -0.350 OA
HETATM    2  N   UNL     1       2.924  14.718  91.241  1.00  0.00     0.147 N 
HETATM    3  C   UNL     1       1.895  14.098  92.087  1.00  0.00     0.283 C 
HETATM    4  C   UNL     1       4.234  14.638  91.901  1.00  0.00     0.283 C 
HETATM    5  C   UNL     1       1.878  14.770  93.457  1.00  0.00     0.178 C 
HETATM    6  C   UNL     1       4.162  15.297  93.275  1.00  0.00     0.178 C 
ENDROOT
BRANCH   2   7
HETATM    7  C   UNL     1       2.965  14.082  89.925  1.00  0.00     0.277 C 
BRANCH   7   8
HETATM    8  C   UNL     1       3.926  12.943  89.875  1.00  0.00     0.011 A 
HETATM    9  C   UNL     1       5.067  13.029  89.076  1.00  0.00    -0.002 A 
HETATM   10  C   UNL     1       5.965  11.963  89.027  1.00  0.00     0.008 A 
HETATM   11  C   UNL     1       5.724  10.813  89.778  1.00  0.00     0.042 A 
HETATM   12  C   UNL     1       4.585  10.727  90.577  1.00  0.00     0.008 A 
HETATM   13  C   UNL     1       3.686  11.792  90.626  1.00  0.00    -0.002 A 
BRANCH  11  14
HETATM   14  C   UNL     1       6.647   9.721  89.729  1.00  0.00    -0.059 C 
HETATM   15  C   UNL     1       7.422   8.803  89.687  1.00  0.00    -0.059 C 
BRANCH  15  16
HETATM   16  C   UNL     1       8.345   7.713  89.638  1.00  0.00     0.042 A 
HETATM   17  C   UNL     1       7.952   6.448  90.076  1.00  0.00     0.008 A 
HETATM   18  C   UNL     1       8.852   5.383  90.025  1.00  0.00     0.005 A 
HETATM   19  C   UNL     1      10.122   5.606  89.537  1.00  0.00     0.056 A 
HETATM   20  C   UNL     1      10.535   6.847  89.099  1.00  0.00     0.005 A 
HETATM   21  C   UNL     1       9.636   7.913  89.149  1.00  0.00     0.008 A 
BRANCH  19  22
HETATM   22  C   UNL     1      11.081   4.472  89.485  1.00  0.00     0.254 C 
HETATM   23  O   UNL     1      11.199   3.834  88.442  1.00  0.00    -0.268 OA
HETATM   24  N   UNL     1      11.804   4.233  90.646  1.00  0.00    -0.335 N 
HETATM   25  HN  UNL     1      11.671   4.818  91.462  1.00  0.00     0.164 HD
BRANCH  24  26
HETATM   26  C   UNL     1      12.788   3.186  90.745  1.00  0.00     0.169 C 
BRANCH  26  27
HETATM   27  C   UNL     1      14.226   3.713  90.662  1.00  0.00     0.138 C 
HETATM   28  C   UNL     1      15.001   3.114  89.493  1.00  0.00     0.034 C 
BRANCH  27  29
HETATM   29  O   UNL     1      14.207   5.133  90.526  1.00  0.00    -0.383 OA
HETATM   30  H   UNL     1      14.716   5.517  91.259  1.00  0.00     0.210 HD
ENDBRANCH  27  29
ENDBRANCH  26  27
BRANCH  26  31
HETATM   31  C   UNL     1      12.545   2.440  92.053  1.00  0.00     0.194 C 
HETATM   32  O   UNL     1      11.422   2.241  92.511  1.00  0.00    -0.289 OA
BRANCH  31  33
HETATM   33  C   UNL     1      13.718   2.062  92.660  1.00  0.00     0.053 C 
BRANCH  33  34
HETATM   34  C   UNL     1      14.003   2.690  93.881  1.00  0.00     0.220 C 
BRANCH  34  35
HETATM   35  O   UNL     1      15.241   2.768  93.989  1.00  0.00    -0.371 OA
HETATM   36  H   UNL     1      15.428   1.844  94.055  1.00  0.00     0.211 HD
ENDBRANCH  34  35
BRANCH  34  37
HETATM   37  C   UNL     1      13.373   3.938  94.029  1.00  0.00     0.185 C 
HETATM   38  O   UNL     1      14.620   4.381  94.075  1.00  0.00    -0.647 OA
BRANCH  37  39
HETATM   39  O   UNL     1      12.255   4.348  94.117  1.00  0.00    -0.774 OA
HETATM   40  H   UNL     1      11.505   3.501  94.205  1.00  0.00     0.167 HD
ENDBRANCH  37  39
ENDBRANCH  34  37
ENDBRANCH  33  34
ENDBRANCH  31  33
ENDBRANCH  26  31
ENDBRANCH  24  26
ENDBRANCH  19  22
ENDBRANCH  15  16
ENDBRANCH  11  14
ENDBRANCH   7   8
ENDBRANCH   2   7
TORSDOF 14
ENDMDL
