MODEL 1
REMARK VINA RESULT:      -6.0      0.000      0.000
REMARK  12 active torsions:
REMARK  status: ('A' for Active; 'I' for Inactive)
REMARK    1  A    between atoms: O_2  and  C_16 
REMARK    2  A    between atoms: N_5  and  C_9 
REMARK    3  A    between atoms: N_6  and  C_13 
REMARK       I    between atoms: N_6  and  C_22 
REMARK    4  A    between atoms: C_9  and  C_12 
REMARK    5  A    between atoms: C_13  and  C_16 
REMARK    6  A    between atoms: C_13  and  C_21 
REMARK    7  A    between atoms: C_19  and  C_24 
REMARK    8  A    between atoms: C_21  and  C_33 
REMARK    9  A    between atoms: C_22  and  C_23 
REMARK   10  A    between atoms: C_27  and  C_30 
REMARK   11  A    between atoms: C_33  and  C_34 
REMARK   12  A    between atoms: C_34  and  C_35 
ROOT
HETATM    1  O   UNL     1      16.999   3.827  93.828  1.00  0.00    -0.350 OA
HETATM    2  N   UNL     1      14.420   3.007  92.946  1.00  0.00     0.147 N 
HETATM    3  C   UNL     1      15.536   2.056  93.045  1.00  0.00     0.283 C 
HETATM    4  C   UNL     1      14.932   4.358  92.675  1.00  0.00     0.283 C 
HETATM    5  C   UNL     1      16.513   2.517  94.124  1.00  0.00     0.178 C 
HETATM    6  C   UNL     1      15.923   4.764  93.761  1.00  0.00     0.178 C 
ENDROOT
BRANCH   2   7
HETATM    7  C   UNL     1      13.476   2.591  91.910  1.00  0.00     0.277 C 
BRANCH   7   8
HETATM    8  C   UNL     1      12.305   3.508  91.808  1.00  0.00     0.011 A 
HETATM    9  C   UNL     1      11.586   3.850  92.953  1.00  0.00    -0.002 A 
HETATM   10  C   UNL     1      10.489   4.706  92.858  1.00  0.00     0.008 A 
HETATM   11  C   UNL     1      10.112   5.220  91.618  1.00  0.00     0.042 A 
HETATM   12  C   UNL     1      10.830   4.879  90.473  1.00  0.00     0.008 A 
HETATM   13  C   UNL     1      11.927   4.023  90.568  1.00  0.00    -0.002 A 
BRANCH  11  14
HETATM   14  C   UNL     1       8.988   6.100  91.521  1.00  0.00    -0.059 C 
HETATM   15  C   UNL     1       8.043   6.839  91.441  1.00  0.00    -0.059 C 
BRANCH  15  16
HETATM   16  C   UNL     1       6.920   7.718  91.344  1.00  0.00     0.042 A 
HETATM   17  C   UNL     1       6.091   7.670  90.223  1.00  0.00     0.008 A 
HETATM   18  C   UNL     1       4.994   8.526  90.131  1.00  0.00     0.005 A 
HETATM   19  C   UNL     1       4.750   9.410  91.160  1.00  0.00     0.056 A 
HETATM   20  C   UNL     1       5.554   9.478  92.279  1.00  0.00     0.005 A 
HETATM   21  C   UNL     1       6.652   8.622  92.372  1.00  0.00     0.008 A 
BRANCH  19  22
HETATM   22  C   UNL     1       3.582  10.323  91.061  1.00  0.00     0.254 C 
HETATM   23  O   UNL     1       2.559   9.930  90.506  1.00  0.00    -0.268 OA
HETATM   24  N   UNL     1       3.738  11.575  91.640  1.00  0.00    -0.335 N 
HETATM   25  HN  UNL     1       4.605  11.821  92.103  1.00  0.00     0.164 HD
BRANCH  24  26
HETATM   26  C   UNL     1       2.689  12.562  91.647  1.00  0.00     0.166 C 
BRANCH  26  27
HETATM   27  C   UNL     1       2.639  13.367  92.951  1.00  0.00     0.138 C 
HETATM   28  C   UNL     1       1.324  13.185  93.700  1.00  0.00     0.034 C 
BRANCH  27  29
HETATM   29  O   UNL     1       3.715  12.967  93.800  1.00  0.00    -0.383 OA
HETATM   30  H   UNL     1       3.368  12.339  94.456  1.00  0.00     0.210 HD
ENDBRANCH  27  29
ENDBRANCH  26  27
BRANCH  26  31
HETATM   31  C   UNL     1       2.898  13.473  90.441  1.00  0.00     0.181 C 
HETATM   32  O   UNL     1       1.990  14.125  89.929  1.00  0.00    -0.294 OA
BRANCH  31  33
HETATM   33  C   UNL     1       4.123  14.509  90.674  1.00  0.00     0.138 C 
BRANCH  33  34
HETATM   34  C   UNL     1       4.817  14.392  89.449  1.00  0.00     0.208 C 
HETATM   35  O   UNL     1       5.511  15.333  89.139  1.00  0.00    -0.289 OA
BRANCH  34  36
HETATM   36  C   UNL     1       5.076  13.292  88.678  1.00  0.00     0.194 C 
HETATM   37  O   UNL     1       5.969  12.234  88.884  1.00  0.00    -0.185 OA
ENDBRANCH  34  36
ENDBRANCH  33  34
ENDBRANCH  31  33
ENDBRANCH  26  31
ENDBRANCH  24  26
ENDBRANCH  19  22
ENDBRANCH  15  16
ENDBRANCH  11  14
ENDBRANCH   7   8
ENDBRANCH   2   7
TORSDOF 12
ENDMDL
MODEL 2
REMARK VINA RESULT:      -5.9      1.416      1.847
REMARK  12 active torsions:
REMARK  status: ('A' for Active; 'I' for Inactive)
REMARK    1  A    between atoms: O_2  and  C_16 
REMARK    2  A    between atoms: N_5  and  C_9 
REMARK    3  A    between atoms: N_6  and  C_13 
REMARK       I    between atoms: N_6  and  C_22 
REMARK    4  A    between atoms: C_9  and  C_12 
REMARK    5  A    between atoms: C_13  and  C_16 
REMARK    6  A    between atoms: C_13  and  C_21 
REMARK    7  A    between atoms: C_19  and  C_24 
REMARK    8  A    between atoms: C_21  and  C_33 
REMARK    9  A    between atoms: C_22  and  C_23 
REMARK   10  A    between atoms: C_27  and  C_30 
REMARK   11  A    between atoms: C_33  and  C_34 
REMARK   12  A    between atoms: C_34  and  C_35 
ROOT
HETATM    1  O   UNL     1      15.975   4.262  94.021  1.00  0.00    -0.350 OA
HETATM    2  N   UNL     1      14.220   2.711  92.403  1.00  0.00     0.147 N 
HETATM    3  C   UNL     1      14.268   4.176  92.297  1.00  0.00     0.283 C 
HETATM    4  C   UNL     1      14.583   2.292  93.764  1.00  0.00     0.283 C 
HETATM    5  C   UNL     1      15.655   4.678  92.692  1.00  0.00     0.178 C 
HETATM    6  C   UNL     1      15.961   2.838  94.124  1.00  0.00     0.178 C 
ENDROOT
BRANCH   2   7
HETATM    7  C   UNL     1      12.896   2.209  92.039  1.00  0.00     0.277 C 
BRANCH   7   8
HETATM    8  C   UNL     1      11.865   3.286  92.023  1.00  0.00     0.011 A 
HETATM    9  C   UNL     1      11.610   4.023  93.181  1.00  0.00    -0.002 A 
HETATM   10  C   UNL     1      10.644   5.029  93.167  1.00  0.00     0.008 A 
HETATM   11  C   UNL     1       9.936   5.299  91.997  1.00  0.00     0.042 A 
HETATM   12  C   UNL     1      10.190   4.564  90.841  1.00  0.00     0.008 A 
HETATM   13  C   UNL     1      11.155   3.557  90.854  1.00  0.00    -0.002 A 
BRANCH  11  14
HETATM   14  C   UNL     1       8.946   6.332  91.983  1.00  0.00    -0.059 C 
HETATM   15  C   UNL     1       8.116   7.201  91.971  1.00  0.00    -0.059 C 
BRANCH  15  16
HETATM   16  C   UNL     1       7.127   8.234  91.957  1.00  0.00     0.042 A 
HETATM   17  C   UNL     1       6.117   8.245  92.919  1.00  0.00     0.008 A 
HETATM   18  C   UNL     1       5.155   9.255  92.906  1.00  0.00     0.005 A 
HETATM   19  C   UNL     1       5.224  10.230  91.933  1.00  0.00     0.056 A 
HETATM   20  C   UNL     1       6.212  10.241  90.971  1.00  0.00     0.005 A 
HETATM   21  C   UNL     1       7.175   9.232  90.983  1.00  0.00     0.008 A 
BRANCH  19  22
HETATM   22  C   UNL     1       4.197  11.304  91.919  1.00  0.00     0.254 C 
HETATM   23  O   UNL     1       3.048  11.039  92.261  1.00  0.00    -0.268 OA
HETATM   24  N   UNL     1       4.639  12.562  91.532  1.00  0.00    -0.335 N 
HETATM   25  HN  UNL     1       5.610  12.711  91.286  1.00  0.00     0.164 HD
BRANCH  24  26
HETATM   26  C   UNL     1       3.769  13.710  91.490  1.00  0.00     0.166 C 
BRANCH  26  27
HETATM   27  C   UNL     1       4.006  14.676  92.658  1.00  0.00     0.138 C 
HETATM   28  C   UNL     1       4.391  13.954  93.944  1.00  0.00     0.034 C 
BRANCH  27  29
HETATM   29  O   UNL     1       5.042  15.595  92.314  1.00  0.00    -0.383 OA
HETATM   30  H   UNL     1       4.764  16.086  91.523  1.00  0.00     0.210 HD
ENDBRANCH  27  29
ENDBRANCH  26  27
BRANCH  26  31
HETATM   31  C   UNL     1       3.975  14.402  90.147  1.00  0.00     0.181 C 
HETATM   32  O   UNL     1       3.991  15.625  90.019  1.00  0.00    -0.294 OA
BRANCH  31  33
HETATM   33  C   UNL     1       5.293  13.851  89.381  1.00  0.00     0.138 C 
BRANCH  33  34
HETATM   34  C   UNL     1       4.714  13.227  88.254  1.00  0.00     0.208 C 
HETATM   35  O   UNL     1       5.218  13.485  87.185  1.00  0.00    -0.289 OA
BRANCH  34  36
HETATM   36  C   UNL     1       3.863  12.159  88.170  1.00  0.00     0.194 C 
HETATM   37  O   UNL     1       4.088  10.857  87.709  1.00  0.00    -0.185 OA
ENDBRANCH  34  36
ENDBRANCH  33  34
ENDBRANCH  31  33
ENDBRANCH  26  31
ENDBRANCH  24  26
ENDBRANCH  19  22
ENDBRANCH  15  16
ENDBRANCH  11  14
ENDBRANCH   7   8
ENDBRANCH   2   7
TORSDOF 12
ENDMDL
MODEL 3
REMARK VINA RESULT:      -4.7      3.004     12.320
REMARK  12 active torsions:
REMARK  status: ('A' for Active; 'I' for Inactive)
REMARK    1  A    between atoms: O_2  and  C_16 
REMARK    2  A    between atoms: N_5  and  C_9 
REMARK    3  A    between atoms: N_6  and  C_13 
REMARK       I    between atoms: N_6  and  C_22 
REMARK    4  A    between atoms: C_9  and  C_12 
REMARK    5  A    between atoms: C_13  and  C_16 
REMARK    6  A    between atoms: C_13  and  C_21 
REMARK    7  A    between atoms: C_19  and  C_24 
REMARK    8  A    between atoms: C_21  and  C_33 
REMARK    9  A    between atoms: C_22  and  C_23 
REMARK   10  A    between atoms: C_27  and  C_30 
REMARK   11  A    between atoms: C_33  and  C_34 
REMARK   12  A    between atoms: C_34  and  C_35 
ROOT
HETATM    1  O   UNL     1       3.005  14.894  94.118  1.00  0.00    -0.350 OA
HETATM    2  N   UNL     1       2.585  14.843  91.303  1.00  0.00     0.147 N 
HETATM    3  C   UNL     1       1.677  14.150  92.227  1.00  0.00     0.283 C 
HETATM    4  C   UNL     1       3.936  14.908  91.878  1.00  0.00     0.283 C 
HETATM    5  C   UNL     1       1.681  14.855  93.581  1.00  0.00     0.178 C 
HETATM    6  C   UNL     1       3.887  15.593  93.239  1.00  0.00     0.178 C 
ENDROOT
BRANCH   2   7
HETATM    7  C   UNL     1       2.605  14.178  90.001  1.00  0.00     0.277 C 
BRANCH   7   8
HETATM    8  C   UNL     1       3.598  13.067  89.946  1.00  0.00     0.011 A 
HETATM    9  C   UNL     1       3.309  11.844  90.551  1.00  0.00    -0.002 A 
HETATM   10  C   UNL     1       4.238  10.805  90.502  1.00  0.00     0.008 A 
HETATM   11  C   UNL     1       5.455  10.989  89.846  1.00  0.00     0.042 A 
HETATM   12  C   UNL     1       5.745  12.211  89.242  1.00  0.00     0.008 A 
HETATM   13  C   UNL     1       4.816  13.250  89.291  1.00  0.00    -0.002 A 
BRANCH  11  14
HETATM   14  C   UNL     1       6.407   9.922  89.794  1.00  0.00    -0.059 C 
HETATM   15  C   UNL     1       7.208   9.026  89.751  1.00  0.00    -0.059 C 
BRANCH  15  16
HETATM   16  C   UNL     1       8.159   7.960  89.700  1.00  0.00     0.042 A 
HETATM   17  C   UNL     1       9.426   8.183  89.159  1.00  0.00     0.008 A 
HETATM   18  C   UNL     1      10.355   7.143  89.112  1.00  0.00     0.005 A 
HETATM   19  C   UNL     1       9.997   5.907  89.607  1.00  0.00     0.056 A 
HETATM   20  C   UNL     1       8.752   5.662  90.146  1.00  0.00     0.005 A 
HETATM   21  C   UNL     1       7.822   6.700  90.194  1.00  0.00     0.008 A 
BRANCH  19  22
HETATM   22  C   UNL     1      10.987   4.799  89.554  1.00  0.00     0.254 C 
HETATM   23  O   UNL     1      11.136   4.178  88.505  1.00  0.00    -0.268 OA
HETATM   24  N   UNL     1      11.699   4.565  90.722  1.00  0.00    -0.335 N 
HETATM   25  HN  UNL     1      11.540   5.136  91.544  1.00  0.00     0.164 HD
BRANCH  24  26
HETATM   26  C   UNL     1      12.710   3.543  90.822  1.00  0.00     0.166 C 
BRANCH  26  27
HETATM   27  C   UNL     1      14.094   4.108  91.165  1.00  0.00     0.138 C 
HETATM   28  C   UNL     1      15.209   3.088  90.961  1.00  0.00     0.034 C 
BRANCH  27  29
HETATM   29  O   UNL     1      14.358   5.252  90.353  1.00  0.00    -0.383 OA
HETATM   30  H   UNL     1      14.245   6.047  90.901  1.00  0.00     0.210 HD
ENDBRANCH  27  29
ENDBRANCH  26  27
BRANCH  26  31
HETATM   31  C   UNL     1      12.249   2.532  91.867  1.00  0.00     0.181 C 
HETATM   32  O   UNL     1      12.779   1.433  92.015  1.00  0.00    -0.294 OA
BRANCH  31  33
HETATM   33  C   UNL     1      12.158   3.193  93.344  1.00  0.00     0.138 C 
BRANCH  33  34
HETATM   34  C   UNL     1      11.023   4.023  93.203  1.00  0.00     0.208 C 
HETATM   35  O   UNL     1      10.043   3.506  92.719  1.00  0.00    -0.289 OA
BRANCH  34  36
HETATM   36  C   UNL     1      10.732   5.231  93.774  1.00  0.00     0.194 C 
HETATM   37  O   UNL     1      10.243   6.409  93.198  1.00  0.00    -0.185 OA
ENDBRANCH  34  36
ENDBRANCH  33  34
ENDBRANCH  31  33
ENDBRANCH  26  31
ENDBRANCH  24  26
ENDBRANCH  19  22
ENDBRANCH  15  16
ENDBRANCH  11  14
ENDBRANCH   7   8
ENDBRANCH   2   7
TORSDOF 12
ENDMDL
MODEL 4
REMARK VINA RESULT:      -4.3      2.528     12.790
REMARK  12 active torsions:
REMARK  status: ('A' for Active; 'I' for Inactive)
REMARK    1  A    between atoms: O_2  and  C_16 
REMARK    2  A    between atoms: N_5  and  C_9 
REMARK    3  A    between atoms: N_6  and  C_13 
REMARK       I    between atoms: N_6  and  C_22 
REMARK    4  A    between atoms: C_9  and  C_12 
REMARK    5  A    between atoms: C_13  and  C_16 
REMARK    6  A    between atoms: C_13  and  C_21 
REMARK    7  A    between atoms: C_19  and  C_24 
REMARK    8  A    between atoms: C_21  and  C_33 
REMARK    9  A    between atoms: C_22  and  C_23 
REMARK   10  A    between atoms: C_27  and  C_30 
REMARK   11  A    between atoms: C_33  and  C_34 
REMARK   12  A    between atoms: C_34  and  C_35 
ROOT
HETATM    1  O   UNL     1       3.089  14.816  94.121  1.00  0.00    -0.350 OA
HETATM    2  N   UNL     1       2.725  14.713  91.300  1.00  0.00     0.147 N 
HETATM    3  C   UNL     1       1.761  14.096  92.222  1.00  0.00     0.283 C 
HETATM    4  C   UNL     1       4.065  14.718  91.902  1.00  0.00     0.283 C 
HETATM    5  C   UNL     1       1.777  14.836  93.557  1.00  0.00     0.178 C 
HETATM    6  C   UNL     1       4.027  15.442  93.244  1.00  0.00     0.178 C 
ENDROOT
BRANCH   2   7
HETATM    7  C   UNL     1       2.735  14.012  90.016  1.00  0.00     0.277 C 
BRANCH   7   8
HETATM    8  C   UNL     1       3.731  12.904  89.981  1.00  0.00     0.011 A 
HETATM    9  C   UNL     1       3.450  11.694  90.617  1.00  0.00    -0.002 A 
HETATM   10  C   UNL     1       4.383  10.658  90.587  1.00  0.00     0.008 A 
HETATM   11  C   UNL     1       5.595  10.831  89.919  1.00  0.00     0.042 A 
HETATM   12  C   UNL     1       5.876  12.038  89.283  1.00  0.00     0.008 A 
HETATM   13  C   UNL     1       4.944  13.076  89.314  1.00  0.00    -0.002 A 
BRANCH  11  14
HETATM   14  C   UNL     1       6.550   9.767  89.886  1.00  0.00    -0.059 C 
HETATM   15  C   UNL     1       7.353   8.872  89.859  1.00  0.00    -0.059 C 
BRANCH  15  16
HETATM   16  C   UNL     1       8.307   7.808  89.826  1.00  0.00     0.042 A 
HETATM   17  C   UNL     1       9.329   7.818  88.876  1.00  0.00     0.008 A 
HETATM   18  C   UNL     1      10.262   6.781  88.846  1.00  0.00     0.005 A 
HETATM   19  C   UNL     1      10.152   5.759  89.765  1.00  0.00     0.056 A 
HETATM   20  C   UNL     1       9.151   5.725  90.713  1.00  0.00     0.005 A 
HETATM   21  C   UNL     1       8.218   6.762  90.744  1.00  0.00     0.008 A 
BRANCH  19  22
HETATM   22  C   UNL     1      11.145   4.654  89.731  1.00  0.00     0.254 C 
HETATM   23  O   UNL     1      11.291   4.011  88.694  1.00  0.00    -0.268 OA
HETATM   24  N   UNL     1      11.864   4.446  90.899  1.00  0.00    -0.335 N 
HETATM   25  HN  UNL     1      11.707   5.034  91.710  1.00  0.00     0.164 HD
BRANCH  24  26
HETATM   26  C   UNL     1      12.879   3.429  91.015  1.00  0.00     0.166 C 
BRANCH  26  27
HETATM   27  C   UNL     1      14.299   4.008  91.036  1.00  0.00     0.138 C 
HETATM   28  C   UNL     1      15.312   3.092  90.359  1.00  0.00     0.034 C 
BRANCH  27  29
HETATM   29  O   UNL     1      14.308   5.275  90.380  1.00  0.00    -0.383 OA
HETATM   30  H   UNL     1      14.168   5.966  91.049  1.00  0.00     0.210 HD
ENDBRANCH  27  29
ENDBRANCH  26  27
BRANCH  26  31
HETATM   31  C   UNL     1      12.589   2.625  92.278  1.00  0.00     0.181 C 
HETATM   32  O   UNL     1      12.928   1.451  92.417  1.00  0.00    -0.294 OA
BRANCH  31  33
HETATM   33  C   UNL     1      13.085   3.399  93.613  1.00  0.00     0.138 C 
BRANCH  33  34
HETATM   34  C   UNL     1      14.335   2.780  93.839  1.00  0.00     0.208 C 
HETATM   35  O   UNL     1      14.417   1.615  93.526  1.00  0.00    -0.289 OA
BRANCH  34  36
HETATM   36  C   UNL     1      15.564   3.327  94.086  1.00  0.00     0.194 C 
HETATM   37  O   UNL     1      15.993   4.658  94.014  1.00  0.00    -0.185 OA
ENDBRANCH  34  36
ENDBRANCH  33  34
ENDBRANCH  31  33
ENDBRANCH  26  31
ENDBRANCH  24  26
ENDBRANCH  19  22
ENDBRANCH  15  16
ENDBRANCH  11  14
ENDBRANCH   7   8
ENDBRANCH   2   7
TORSDOF 12
ENDMDL
MODEL 5
REMARK VINA RESULT:      -3.8      1.510      2.933
REMARK  12 active torsions:
REMARK  status: ('A' for Active; 'I' for Inactive)
REMARK    1  A    between atoms: O_2  and  C_16 
REMARK    2  A    between atoms: N_5  and  C_9 
REMARK    3  A    between atoms: N_6  and  C_13 
REMARK       I    between atoms: N_6  and  C_22 
REMARK    4  A    between atoms: C_9  and  C_12 
REMARK    5  A    between atoms: C_13  and  C_16 
REMARK    6  A    between atoms: C_13  and  C_21 
REMARK    7  A    between atoms: C_19  and  C_24 
REMARK    8  A    between atoms: C_21  and  C_33 
REMARK    9  A    between atoms: C_22  and  C_23 
REMARK   10  A    between atoms: C_27  and  C_30 
REMARK   11  A    between atoms: C_33  and  C_34 
REMARK   12  A    between atoms: C_34  and  C_35 
ROOT
HETATM    1  O   UNL     1      16.185   3.801  94.034  1.00  0.00    -0.350 OA
HETATM    2  N   UNL     1      14.212   2.430  92.509  1.00  0.00     0.147 N 
HETATM    3  C   UNL     1      14.379   3.887  92.416  1.00  0.00     0.283 C 
HETATM    4  C   UNL     1      14.617   1.961  93.842  1.00  0.00     0.283 C 
HETATM    5  C   UNL     1      15.824   4.263  92.731  1.00  0.00     0.178 C 
HETATM    6  C   UNL     1      16.056   2.382  94.124  1.00  0.00     0.178 C 
ENDROOT
BRANCH   2   7
HETATM    7  C   UNL     1      12.831   2.047  92.222  1.00  0.00     0.277 C 
BRANCH   7   8
HETATM    8  C   UNL     1      11.963   3.226  91.936  1.00  0.00     0.011 A 
HETATM    9  C   UNL     1      11.518   4.033  92.984  1.00  0.00    -0.002 A 
HETATM   10  C   UNL     1      10.704   5.134  92.718  1.00  0.00     0.008 A 
HETATM   11  C   UNL     1      10.338   5.428  91.405  1.00  0.00     0.042 A 
HETATM   12  C   UNL     1      10.782   4.623  90.358  1.00  0.00     0.008 A 
HETATM   13  C   UNL     1      11.595   3.521  90.624  1.00  0.00    -0.002 A 
BRANCH  11  14
HETATM   14  C   UNL     1       9.505   6.559  91.132  1.00  0.00    -0.059 C 
HETATM   15  C   UNL     1       8.806   7.510  90.904  1.00  0.00    -0.059 C 
BRANCH  15  16
HETATM   16  C   UNL     1       7.974   8.641  90.631  1.00  0.00     0.042 A 
HETATM   17  C   UNL     1       7.852   9.660  91.576  1.00  0.00     0.008 A 
HETATM   18  C   UNL     1       7.043  10.764  91.308  1.00  0.00     0.005 A 
HETATM   19  C   UNL     1       6.375  10.825  90.103  1.00  0.00     0.056 A 
HETATM   20  C   UNL     1       6.478   9.830  89.153  1.00  0.00     0.005 A 
HETATM   21  C   UNL     1       7.287   8.726  89.420  1.00  0.00     0.008 A 
BRANCH  19  22
HETATM   22  C   UNL     1       5.512  12.000  89.819  1.00  0.00     0.254 C 
HETATM   23  O   UNL     1       5.404  12.401  88.662  1.00  0.00    -0.268 OA
HETATM   24  N   UNL     1       4.858  12.553  90.912  1.00  0.00    -0.335 N 
HETATM   25  HN  UNL     1       4.975  12.152  91.835  1.00  0.00     0.164 HD
BRANCH  24  26
HETATM   26  C   UNL     1       3.968  13.679  90.795  1.00  0.00     0.166 C 
BRANCH  26  27
HETATM   27  C   UNL     1       2.522  13.265  90.492  1.00  0.00     0.138 C 
HETATM   28  C   UNL     1       1.561  14.449  90.502  1.00  0.00     0.034 C 
BRANCH  27  29
HETATM   29  O   UNL     1       2.465  12.632  89.214  1.00  0.00    -0.383 OA
HETATM   30  H   UNL     1       3.370  12.568  88.865  1.00  0.00     0.210 HD
ENDBRANCH  27  29
ENDBRANCH  26  27
BRANCH  26  31
HETATM   31  C   UNL     1       4.055  14.479  92.091  1.00  0.00     0.181 C 
HETATM   32  O   UNL     1       3.203  15.297  92.432  1.00  0.00    -0.294 OA
BRANCH  31  33
HETATM   33  C   UNL     1       4.301  13.520  93.375  1.00  0.00     0.138 C 
BRANCH  33  34
HETATM   34  C   UNL     1       2.986  13.387  93.872  1.00  0.00     0.208 C 
HETATM   35  O   UNL     1       2.377  14.417  94.050  1.00  0.00    -0.289 OA
BRANCH  34  36
HETATM   36  C   UNL     1       2.164  12.295  93.926  1.00  0.00     0.194 C 
HETATM   37  O   UNL     1       1.960  11.270  92.995  1.00  0.00    -0.185 OA
ENDBRANCH  34  36
ENDBRANCH  33  34
ENDBRANCH  31  33
ENDBRANCH  26  31
ENDBRANCH  24  26
ENDBRANCH  19  22
ENDBRANCH  15  16
ENDBRANCH  11  14
ENDBRANCH   7   8
ENDBRANCH   2   7
TORSDOF 12
ENDMDL
MODEL 6
REMARK VINA RESULT:      -3.4      2.195      3.495
REMARK  12 active torsions:
REMARK  status: ('A' for Active; 'I' for Inactive)
REMARK    1  A    between atoms: O_2  and  C_16 
REMARK    2  A    between atoms: N_5  and  C_9 
REMARK    3  A    between atoms: N_6  and  C_13 
REMARK       I    between atoms: N_6  and  C_22 
REMARK    4  A    between atoms: C_9  and  C_12 
REMARK    5  A    between atoms: C_13  and  C_16 
REMARK    6  A    between atoms: C_13  and  C_21 
REMARK    7  A    between atoms: C_19  and  C_24 
REMARK    8  A    between atoms: C_21  and  C_33 
REMARK    9  A    between atoms: C_22  and  C_23 
REMARK   10  A    between atoms: C_27  and  C_30 
REMARK   11  A    between atoms: C_33  and  C_34 
REMARK   12  A    between atoms: C_34  and  C_35 
ROOT
HETATM    1  O   UNL     1      17.098   4.102  92.641  1.00  0.00    -0.350 OA
HETATM    2  N   UNL     1      15.134   2.556  94.003  1.00  0.00     0.147 N 
HETATM    3  C   UNL     1      15.838   2.036  92.822  1.00  0.00     0.283 C 
HETATM    4  C   UNL     1      15.045   4.021  93.931  1.00  0.00     0.283 C 
HETATM    5  C   UNL     1      17.218   2.680  92.718  1.00  0.00     0.178 C 
HETATM    6  C   UNL     1      16.442   4.619  93.800  1.00  0.00     0.178 C 
ENDROOT
BRANCH   2   7
HETATM    7  C   UNL     1      13.804   1.959  94.117  1.00  0.00     0.277 C 
BRANCH   7   8
HETATM    8  C   UNL     1      12.777   2.709  93.339  1.00  0.00     0.011 A 
HETATM    9  C   UNL     1      12.095   3.773  93.931  1.00  0.00    -0.002 A 
HETATM   10  C   UNL     1      11.132   4.473  93.205  1.00  0.00     0.008 A 
HETATM   11  C   UNL     1      10.853   4.111  91.888  1.00  0.00     0.042 A 
HETATM   12  C   UNL     1      11.533   3.049  91.296  1.00  0.00     0.008 A 
HETATM   13  C   UNL     1      12.496   2.348  92.021  1.00  0.00    -0.002 A 
BRANCH  11  14
HETATM   14  C   UNL     1       9.866   4.832  91.143  1.00  0.00    -0.059 C 
HETATM   15  C   UNL     1       9.037   5.436  90.516  1.00  0.00    -0.059 C 
BRANCH  15  16
HETATM   16  C   UNL     1       8.050   6.156  89.773  1.00  0.00     0.042 A 
HETATM   17  C   UNL     1       6.701   6.033  90.105  1.00  0.00     0.008 A 
HETATM   18  C   UNL     1       5.739   6.737  89.380  1.00  0.00     0.005 A 
HETATM   19  C   UNL     1       6.148   7.548  88.342  1.00  0.00     0.056 A 
HETATM   20  C   UNL     1       7.475   7.686  87.994  1.00  0.00     0.005 A 
HETATM   21  C   UNL     1       8.438   6.982  88.718  1.00  0.00     0.008 A 
BRANCH  19  22
HETATM   22  C   UNL     1       5.122   8.297  87.570  1.00  0.00     0.254 C 
HETATM   23  O   UNL     1       5.263   8.429  86.357  1.00  0.00    -0.268 OA
HETATM   24  N   UNL     1       4.045   8.780  88.299  1.00  0.00    -0.335 N 
HETATM   25  HN  UNL     1       3.983   8.610  89.296  1.00  0.00     0.164 HD
BRANCH  24  26
HETATM   26  C   UNL     1       2.958   9.503  87.690  1.00  0.00     0.166 C 
BRANCH  26  27
HETATM   27  C   UNL     1       1.609   8.790  87.844  1.00  0.00     0.138 C 
HETATM   28  C   UNL     1       1.642   7.358  87.320  1.00  0.00     0.034 C 
BRANCH  27  29
HETATM   29  O   UNL     1       1.234   8.770  89.221  1.00  0.00    -0.383 OA
HETATM   30  H   UNL     1       1.380   9.658  89.589  1.00  0.00     0.210 HD
ENDBRANCH  27  29
ENDBRANCH  26  27
BRANCH  26  31
HETATM   31  C   UNL     1       2.922  10.897  88.308  1.00  0.00     0.181 C 
HETATM   32  O   UNL     1       2.549  11.109  89.461  1.00  0.00    -0.294 OA
BRANCH  31  33
HETATM   33  C   UNL     1       4.339  11.666  88.143  1.00  0.00     0.138 C 
BRANCH  33  34
HETATM   34  C   UNL     1       4.114  12.824  88.921  1.00  0.00     0.208 C 
HETATM   35  O   UNL     1       4.828  13.771  88.684  1.00  0.00    -0.289 OA
BRANCH  34  36
HETATM   36  C   UNL     1       3.048  13.174  89.703  1.00  0.00     0.194 C 
HETATM   37  O   UNL     1       2.987  13.994  90.836  1.00  0.00    -0.185 OA
ENDBRANCH  34  36
ENDBRANCH  33  34
ENDBRANCH  31  33
ENDBRANCH  26  31
ENDBRANCH  24  26
ENDBRANCH  19  22
ENDBRANCH  15  16
ENDBRANCH  11  14
ENDBRANCH   7   8
ENDBRANCH   2   7
TORSDOF 12
ENDMDL
MODEL 7
REMARK VINA RESULT:      -3.1      2.468     12.538
REMARK  12 active torsions:
REMARK  status: ('A' for Active; 'I' for Inactive)
REMARK    1  A    between atoms: O_2  and  C_16 
REMARK    2  A    between atoms: N_5  and  C_9 
REMARK    3  A    between atoms: N_6  and  C_13 
REMARK       I    between atoms: N_6  and  C_22 
REMARK    4  A    between atoms: C_9  and  C_12 
REMARK    5  A    between atoms: C_13  and  C_16 
REMARK    6  A    between atoms: C_13  and  C_21 
REMARK    7  A    between atoms: C_19  and  C_24 
REMARK    8  A    between atoms: C_21  and  C_33 
REMARK    9  A    between atoms: C_22  and  C_23 
REMARK   10  A    between atoms: C_27  and  C_30 
REMARK   11  A    between atoms: C_33  and  C_34 
REMARK   12  A    between atoms: C_34  and  C_35 
ROOT
HETATM    1  O   UNL     1       5.067  15.625  91.070  1.00  0.00    -0.350 OA
HETATM    2  N   UNL     1       3.295  13.641  90.056  1.00  0.00     0.147 N 
HETATM    3  C   UNL     1       3.493  13.828  91.500  1.00  0.00     0.283 C 
HETATM    4  C   UNL     1       4.509  14.033  89.327  1.00  0.00     0.283 C 
HETATM    5  C   UNL     1       3.880  15.277  91.785  1.00  0.00     0.178 C 
HETATM    6  C   UNL     1       4.873  15.475  89.663  1.00  0.00     0.178 C 
ENDROOT
BRANCH   2   7
HETATM    7  C   UNL     1       2.934  12.256  89.759  1.00  0.00     0.277 C 
BRANCH   7   8
HETATM    8  C   UNL     1       4.091  11.326  89.893  1.00  0.00     0.011 A 
HETATM    9  C   UNL     1       4.445  10.496  88.828  1.00  0.00    -0.002 A 
HETATM   10  C   UNL     1       5.526   9.624  88.954  1.00  0.00     0.008 A 
HETATM   11  C   UNL     1       6.253   9.583  90.143  1.00  0.00     0.042 A 
HETATM   12  C   UNL     1       5.900  10.411  91.207  1.00  0.00     0.008 A 
HETATM   13  C   UNL     1       4.819  11.283  91.082  1.00  0.00    -0.002 A 
BRANCH  11  14
HETATM   14  C   UNL     1       7.363   8.689  90.271  1.00  0.00    -0.059 C 
HETATM   15  C   UNL     1       8.296   7.939  90.379  1.00  0.00    -0.059 C 
BRANCH  15  16
HETATM   16  C   UNL     1       9.405   7.046  90.507  1.00  0.00     0.042 A 
HETATM   17  C   UNL     1      10.028   6.540  89.366  1.00  0.00     0.008 A 
HETATM   18  C   UNL     1      11.111   5.671  89.492  1.00  0.00     0.005 A 
HETATM   19  C   UNL     1      11.548   5.328  90.754  1.00  0.00     0.056 A 
HETATM   20  C   UNL     1      10.950   5.814  91.898  1.00  0.00     0.005 A 
HETATM   21  C   UNL     1       9.866   6.683  91.773  1.00  0.00     0.008 A 
BRANCH  19  22
HETATM   22  C   UNL     1      12.702   4.400  90.887  1.00  0.00     0.254 C 
HETATM   23  O   UNL     1      13.027   3.707  89.927  1.00  0.00    -0.268 OA
HETATM   24  N   UNL     1      13.352   4.411  92.114  1.00  0.00    -0.335 N 
HETATM   25  HN  UNL     1      13.041   5.030  92.853  1.00  0.00     0.164 HD
BRANCH  24  26
HETATM   26  C   UNL     1      14.501   3.586  92.389  1.00  0.00     0.166 C 
BRANCH  26  27
HETATM   27  C   UNL     1      15.499   4.258  93.341  1.00  0.00     0.138 C 
HETATM   28  C   UNL     1      16.631   3.324  93.754  1.00  0.00     0.034 C 
BRANCH  27  29
HETATM   29  O   UNL     1      16.055   5.412  92.713  1.00  0.00    -0.383 OA
HETATM   30  H   UNL     1      15.324   5.966  92.390  1.00  0.00     0.210 HD
ENDBRANCH  27  29
ENDBRANCH  26  27
BRANCH  26  31
HETATM   31  C   UNL     1      13.999   2.262  92.956  1.00  0.00     0.181 C 
HETATM   32  O   UNL     1      14.682   1.543  93.682  1.00  0.00    -0.294 OA
BRANCH  31  33
HETATM   33  C   UNL     1      12.569   2.429  93.701  1.00  0.00     0.138 C 
BRANCH  33  34
HETATM   34  C   UNL     1      11.679   2.036  92.676  1.00  0.00     0.208 C 
HETATM   35  O   UNL     1      12.120   1.264  91.856  1.00  0.00    -0.289 OA
BRANCH  34  36
HETATM   36  C   UNL     1      10.318   2.144  92.593  1.00  0.00     0.194 C 
HETATM   37  O   UNL     1       9.525   3.049  91.880  1.00  0.00    -0.185 OA
ENDBRANCH  34  36
ENDBRANCH  33  34
ENDBRANCH  31  33
ENDBRANCH  26  31
ENDBRANCH  24  26
ENDBRANCH  19  22
ENDBRANCH  15  16
ENDBRANCH  11  14
ENDBRANCH   7   8
ENDBRANCH   2   7
TORSDOF 12
ENDMDL
