MODEL 1
REMARK VINA RESULT:      -6.5      0.000      0.000
REMARK  14 active torsions:
REMARK  status: ('A' for Active; 'I' for Inactive)
REMARK    1  A    between atoms: O_2  and  C_18 
REMARK    2  A    between atoms: C_5  and  C_8 
REMARK    3  A    between atoms: C_5  and  O_35 
REMARK    4  A    between atoms: C_5  and  C_36 
REMARK    5  A    between atoms: N_6  and  C_11 
REMARK    6  A    between atoms: N_7  and  C_15 
REMARK       I    between atoms: N_7  and  C_24 
REMARK    7  A    between atoms: C_8  and  C_23 
REMARK    8  A    between atoms: C_11  and  C_14 
REMARK    9  A    between atoms: C_15  and  C_18 
REMARK   10  A    between atoms: C_15  and  C_23 
REMARK   11  A    between atoms: C_21  and  C_26 
REMARK   12  A    between atoms: C_24  and  C_25 
REMARK   13  A    between atoms: C_29  and  C_32 
REMARK   14  A    between atoms: C_36  and  O_39 
ROOT
HETATM    1  O   UNL     1      16.659   3.157  93.929  1.00  0.00    -0.350 OA
HETATM    2  N   UNL     1      14.140   3.066  92.605  1.00  0.00     0.147 N 
HETATM    3  C   UNL     1      14.904   1.843  92.888  1.00  0.00     0.283 C 
HETATM    4  C   UNL     1      15.056   4.204  92.439  1.00  0.00     0.283 C 
HETATM    5  C   UNL     1      15.775   2.051  94.124  1.00  0.00     0.178 C 
HETATM    6  C   UNL     1      15.923   4.356  93.684  1.00  0.00     0.178 C 
ENDROOT
BRANCH   2   7
HETATM    7  C   UNL     1      13.306   2.893  91.417  1.00  0.00     0.277 C 
BRANCH   7   8
HETATM    8  C   UNL     1      12.119   3.794  91.420  1.00  0.00     0.011 A 
HETATM    9  C   UNL     1      11.628   4.304  90.218  1.00  0.00    -0.002 A 
HETATM   10  C   UNL     1      10.518   5.149  90.220  1.00  0.00     0.008 A 
HETATM   11  C   UNL     1       9.899   5.482  91.424  1.00  0.00     0.042 A 
HETATM   12  C   UNL     1      10.388   4.973  92.626  1.00  0.00     0.008 A 
HETATM   13  C   UNL     1      11.498   4.128  92.624  1.00  0.00    -0.002 A 
BRANCH  11  14
HETATM   14  C   UNL     1       8.759   6.347  91.426  1.00  0.00    -0.059 C 
HETATM   15  C   UNL     1       7.801   7.074  91.428  1.00  0.00    -0.059 C 
BRANCH  15  16
HETATM   16  C   UNL     1       6.663   7.938  91.431  1.00  0.00     0.042 A 
HETATM   17  C   UNL     1       6.027   8.256  90.230  1.00  0.00     0.008 A 
HETATM   18  C   UNL     1       4.914   9.097  90.233  1.00  0.00     0.005 A 
HETATM   19  C   UNL     1       4.462   9.600  91.435  1.00  0.00     0.056 A 
HETATM   20  C   UNL     1       5.073   9.301  92.635  1.00  0.00     0.005 A 
HETATM   21  C   UNL     1       6.186   8.460  92.633  1.00  0.00     0.008 A 
BRANCH  19  22
HETATM   22  C   UNL     1       3.278  10.498  91.438  1.00  0.00     0.254 C 
HETATM   23  O   UNL     1       2.167  10.026  91.207  1.00  0.00    -0.268 OA
HETATM   24  N   UNL     1       3.526  11.831  91.734  1.00  0.00    -0.335 N 
HETATM   25  HN  UNL     1       4.468  12.144  91.939  1.00  0.00     0.164 HD
BRANCH  24  26
HETATM   26  C   UNL     1       2.479  12.819  91.799  1.00  0.00     0.169 C 
BRANCH  26  27
HETATM   27  C   UNL     1       2.380  13.489  93.175  1.00  0.00     0.138 C 
HETATM   28  C   UNL     1       3.703  13.464  93.933  1.00  0.00     0.034 C 
BRANCH  27  29
HETATM   29  O   UNL     1       1.962  14.844  93.017  1.00  0.00    -0.383 OA
HETATM   30  H   UNL     1       1.145  14.973  93.528  1.00  0.00     0.210 HD
ENDBRANCH  27  29
ENDBRANCH  26  27
BRANCH  26  31
HETATM   31  C   UNL     1       2.738  13.844  90.700  1.00  0.00     0.194 C 
HETATM   32  O   UNL     1       1.844  14.515  90.186  1.00  0.00    -0.289 OA
BRANCH  31  33
HETATM   33  C   UNL     1       4.062  13.895  90.338  1.00  0.00     0.053 C 
BRANCH  33  34
HETATM   34  C   UNL     1       4.315  14.183  88.989  1.00  0.00     0.220 C 
BRANCH  34  35
HETATM   35  O   UNL     1       5.198  15.060  88.947  1.00  0.00    -0.371 OA
HETATM   36  H   UNL     1       5.315  15.086  88.010  1.00  0.00     0.211 HD
ENDBRANCH  34  35
BRANCH  34  37
HETATM   37  C   UNL     1       4.652  13.050  88.228  1.00  0.00     0.185 C 
HETATM   38  O   UNL     1       5.859  13.274  88.723  1.00  0.00    -0.647 OA
BRANCH  37  39
HETATM   39  O   UNL     1       4.097  12.306  87.476  1.00  0.00    -0.774 OA
HETATM   40  H   UNL     1       3.280  12.835  86.892  1.00  0.00     0.167 HD
ENDBRANCH  37  39
ENDBRANCH  34  37
ENDBRANCH  33  34
ENDBRANCH  31  33
ENDBRANCH  26  31
ENDBRANCH  24  26
ENDBRANCH  19  22
ENDBRANCH  15  16
ENDBRANCH  11  14
ENDBRANCH   7   8
ENDBRANCH   2   7
TORSDOF 14
ENDMDL
MODEL 2
REMARK VINA RESULT:      -5.8      1.578      2.200
REMARK  14 active torsions:
REMARK  status: ('A' for Active; 'I' for Inactive)
REMARK    1  A    between atoms: O_2  and  C_18 
REMARK    2  A    between atoms: C_5  and  C_8 
REMARK    3  A    between atoms: C_5  and  O_35 
REMARK    4  A    between atoms: C_5  and  C_36 
REMARK    5  A    between atoms: N_6  and  C_11 
REMARK    6  A    between atoms: N_7  and  C_15 
REMARK       I    between atoms: N_7  and  C_24 
REMARK    7  A    between atoms: C_8  and  C_23 
REMARK    8  A    between atoms: C_11  and  C_14 
REMARK    9  A    between atoms: C_15  and  C_18 
REMARK   10  A    between atoms: C_15  and  C_23 
REMARK   11  A    between atoms: C_21  and  C_26 
REMARK   12  A    between atoms: C_24  and  C_25 
REMARK   13  A    between atoms: C_29  and  C_32 
REMARK   14  A    between atoms: C_36  and  O_39 
ROOT
HETATM    1  O   UNL     1      16.768   4.494  93.749  1.00  0.00    -0.350 OA
HETATM    2  N   UNL     1      14.648   2.842  92.813  1.00  0.00     0.147 N 
HETATM    3  C   UNL     1      14.626   4.299  92.624  1.00  0.00     0.283 C 
HETATM    4  C   UNL     1      15.412   2.502  94.021  1.00  0.00     0.283 C 
HETATM    5  C   UNL     1      16.055   4.833  92.558  1.00  0.00     0.178 C 
HETATM    6  C   UNL     1      16.820   3.078  93.923  1.00  0.00     0.178 C 
ENDROOT
BRANCH   2   7
HETATM    7  C   UNL     1      13.289   2.309  92.890  1.00  0.00     0.277 C 
BRANCH   7   8
HETATM    8  C   UNL     1      12.257   3.385  92.892  1.00  0.00     0.011 A 
HETATM    9  C   UNL     1      11.583   3.707  91.713  1.00  0.00    -0.002 A 
HETATM   10  C   UNL     1      10.619   4.715  91.714  1.00  0.00     0.008 A 
HETATM   11  C   UNL     1      10.327   5.398  92.894  1.00  0.00     0.042 A 
HETATM   12  C   UNL     1      10.999   5.077  94.072  1.00  0.00     0.008 A 
HETATM   13  C   UNL     1      11.964   4.070  94.072  1.00  0.00    -0.002 A 
BRANCH  11  14
HETATM   14  C   UNL     1       9.336   6.430  92.895  1.00  0.00    -0.059 C 
HETATM   15  C   UNL     1       8.504   7.298  92.896  1.00  0.00    -0.059 C 
BRANCH  15  16
HETATM   16  C   UNL     1       7.513   8.328  92.897  1.00  0.00     0.042 A 
HETATM   17  C   UNL     1       7.840   9.608  93.345  1.00  0.00     0.008 A 
HETATM   18  C   UNL     1       6.874  10.615  93.343  1.00  0.00     0.005 A 
HETATM   19  C   UNL     1       5.605  10.319  92.893  1.00  0.00     0.056 A 
HETATM   20  C   UNL     1       5.256   9.062  92.445  1.00  0.00     0.005 A 
HETATM   21  C   UNL     1       6.221   8.055  92.447  1.00  0.00     0.008 A 
BRANCH  19  22
HETATM   22  C   UNL     1       4.575  11.391  92.893  1.00  0.00     0.254 C 
HETATM   23  O   UNL     1       3.751  11.430  93.803  1.00  0.00    -0.268 OA
HETATM   24  N   UNL     1       4.646  12.302  91.848  1.00  0.00    -0.335 N 
HETATM   25  HN  UNL     1       5.371  12.221  91.145  1.00  0.00     0.164 HD
BRANCH  24  26
HETATM   26  C   UNL     1       3.734  13.410  91.723  1.00  0.00     0.169 C 
BRANCH  26  27
HETATM   27  C   UNL     1       4.381  14.754  92.082  1.00  0.00     0.138 C 
HETATM   28  C   UNL     1       4.961  15.466  90.865  1.00  0.00     0.034 C 
BRANCH  27  29
HETATM   29  O   UNL     1       3.411  15.602  92.697  1.00  0.00    -0.383 OA
HETATM   30  H   UNL     1       3.171  15.217  93.556  1.00  0.00     0.210 HD
ENDBRANCH  27  29
ENDBRANCH  26  27
BRANCH  26  31
HETATM   31  C   UNL     1       3.201  13.416  90.294  1.00  0.00     0.194 C 
HETATM   32  O   UNL     1       2.352  14.213  89.899  1.00  0.00    -0.289 OA
BRANCH  31  33
HETATM   33  C   UNL     1       3.748  12.413  89.532  1.00  0.00     0.053 C 
BRANCH  33  34
HETATM   34  C   UNL     1       3.319  12.357  88.198  1.00  0.00     0.220 C 
BRANCH  34  35
HETATM   35  O   UNL     1       4.277  12.694  87.477  1.00  0.00    -0.371 OA
HETATM   36  H   UNL     1       4.433  11.859  87.064  1.00  0.00     0.211 HD
ENDBRANCH  34  35
BRANCH  34  37
HETATM   37  C   UNL     1       2.790  11.107  87.832  1.00  0.00     0.185 C 
HETATM   38  O   UNL     1       4.020  10.690  88.089  1.00  0.00    -0.647 OA
BRANCH  37  39
HETATM   39  O   UNL     1       1.745  10.683  87.439  1.00  0.00    -0.774 OA
HETATM   40  H   UNL     1       1.733  10.583  86.309  1.00  0.00     0.167 HD
ENDBRANCH  37  39
ENDBRANCH  34  37
ENDBRANCH  33  34
ENDBRANCH  31  33
ENDBRANCH  26  31
ENDBRANCH  24  26
ENDBRANCH  19  22
ENDBRANCH  15  16
ENDBRANCH  11  14
ENDBRANCH   7   8
ENDBRANCH   2   7
TORSDOF 14
ENDMDL
MODEL 3
REMARK VINA RESULT:      -4.0      1.595      3.320
REMARK  14 active torsions:
REMARK  status: ('A' for Active; 'I' for Inactive)
REMARK    1  A    between atoms: O_2  and  C_18 
REMARK    2  A    between atoms: C_5  and  C_8 
REMARK    3  A    between atoms: C_5  and  O_35 
REMARK    4  A    between atoms: C_5  and  C_36 
REMARK    5  A    between atoms: N_6  and  C_11 
REMARK    6  A    between atoms: N_7  and  C_15 
REMARK       I    between atoms: N_7  and  C_24 
REMARK    7  A    between atoms: C_8  and  C_23 
REMARK    8  A    between atoms: C_11  and  C_14 
REMARK    9  A    between atoms: C_15  and  C_18 
REMARK   10  A    between atoms: C_15  and  C_23 
REMARK   11  A    between atoms: C_21  and  C_26 
REMARK   12  A    between atoms: C_24  and  C_25 
REMARK   13  A    between atoms: C_29  and  C_32 
REMARK   14  A    between atoms: C_36  and  O_39 
ROOT
HETATM    1  O   UNL     1      16.529   3.893  92.855  1.00  0.00    -0.350 OA
HETATM    2  N   UNL     1      14.426   1.977  92.933  1.00  0.00     0.147 N 
HETATM    3  C   UNL     1      14.729   2.735  91.712  1.00  0.00     0.283 C 
HETATM    4  C   UNL     1      14.793   2.764  94.119  1.00  0.00     0.283 C 
HETATM    5  C   UNL     1      16.206   3.123  91.697  1.00  0.00     0.178 C 
HETATM    6  C   UNL     1      16.267   3.151  94.047  1.00  0.00     0.178 C 
ENDROOT
BRANCH   2   7
HETATM    7  C   UNL     1      13.013   1.604  92.974  1.00  0.00     0.277 C 
BRANCH   7   8
HETATM    8  C   UNL     1      12.111   2.783  92.847  1.00  0.00     0.011 A 
HETATM    9  C   UNL     1      12.052   3.729  93.871  1.00  0.00    -0.002 A 
HETATM   10  C   UNL     1      11.206   4.832  93.754  1.00  0.00     0.008 A 
HETATM   11  C   UNL     1      10.421   4.989  92.612  1.00  0.00     0.042 A 
HETATM   12  C   UNL     1      10.479   4.046  91.588  1.00  0.00     0.008 A 
HETATM   13  C   UNL     1      11.324   2.942  91.705  1.00  0.00    -0.002 A 
BRANCH  11  14
HETATM   14  C   UNL     1       9.555   6.122  92.491  1.00  0.00    -0.059 C 
HETATM   15  C   UNL     1       8.828   7.074  92.388  1.00  0.00    -0.059 C 
BRANCH  15  16
HETATM   16  C   UNL     1       7.963   8.206  92.266  1.00  0.00     0.042 A 
HETATM   17  C   UNL     1       8.251   9.381  92.961  1.00  0.00     0.008 A 
HETATM   18  C   UNL     1       7.409  10.486  92.839  1.00  0.00     0.005 A 
HETATM   19  C   UNL     1       6.298  10.391  92.027  1.00  0.00     0.056 A 
HETATM   20  C   UNL     1       5.991   9.241  91.331  1.00  0.00     0.005 A 
HETATM   21  C   UNL     1       6.833   8.135  91.452  1.00  0.00     0.008 A 
BRANCH  19  22
HETATM   22  C   UNL     1       5.399  11.567  91.900  1.00  0.00     0.254 C 
HETATM   23  O   UNL     1       4.811  11.983  92.895  1.00  0.00    -0.268 OA
HETATM   24  N   UNL     1       5.313  12.133  90.635  1.00  0.00    -0.335 N 
HETATM   25  HN  UNL     1       5.849  11.750  89.865  1.00  0.00     0.164 HD
BRANCH  24  26
HETATM   26  C   UNL     1       4.504  13.292  90.357  1.00  0.00     0.169 C 
BRANCH  26  27
HETATM   27  C   UNL     1       4.909  14.002  89.059  1.00  0.00     0.138 C 
HETATM   28  C   UNL     1       5.095  15.503  89.248  1.00  0.00     0.034 C 
BRANCH  27  29
HETATM   29  O   UNL     1       6.126  13.441  88.569  1.00  0.00    -0.383 OA
HETATM   30  H   UNL     1       6.078  12.475  88.665  1.00  0.00     0.210 HD
ENDBRANCH  27  29
ENDBRANCH  26  27
BRANCH  26  31
HETATM   31  C   UNL     1       3.047  12.843  90.313  1.00  0.00     0.194 C 
HETATM   32  O   UNL     1       2.705  11.711  89.974  1.00  0.00    -0.289 OA
BRANCH  31  33
HETATM   33  C   UNL     1       2.181  13.853  90.654  1.00  0.00     0.053 C 
BRANCH  33  34
HETATM   34  C   UNL     1       1.558  13.727  91.903  1.00  0.00     0.220 C 
BRANCH  34  35
HETATM   35  O   UNL     1       1.351  12.516  92.105  1.00  0.00    -0.371 OA
HETATM   36  H   UNL     1       1.829  12.432  92.916  1.00  0.00     0.211 HD
ENDBRANCH  34  35
BRANCH  34  37
HETATM   37  C   UNL     1       2.278  14.327  92.951  1.00  0.00     0.185 C 
HETATM   38  O   UNL     1       1.992  13.198  93.580  1.00  0.00    -0.647 OA
BRANCH  37  39
HETATM   39  O   UNL     1       2.823  15.371  93.151  1.00  0.00    -0.774 OA
HETATM   40  H   UNL     1       2.208  16.040  93.831  1.00  0.00     0.167 HD
ENDBRANCH  37  39
ENDBRANCH  34  37
ENDBRANCH  33  34
ENDBRANCH  31  33
ENDBRANCH  26  31
ENDBRANCH  24  26
ENDBRANCH  19  22
ENDBRANCH  15  16
ENDBRANCH  11  14
ENDBRANCH   7   8
ENDBRANCH   2   7
TORSDOF 14
ENDMDL
MODEL 4
REMARK VINA RESULT:      -3.8      1.579      3.124
REMARK  14 active torsions:
REMARK  status: ('A' for Active; 'I' for Inactive)
REMARK    1  A    between atoms: O_2  and  C_18 
REMARK    2  A    between atoms: C_5  and  C_8 
REMARK    3  A    between atoms: C_5  and  O_35 
REMARK    4  A    between atoms: C_5  and  C_36 
REMARK    5  A    between atoms: N_6  and  C_11 
REMARK    6  A    between atoms: N_7  and  C_15 
REMARK       I    between atoms: N_7  and  C_24 
REMARK    7  A    between atoms: C_8  and  C_23 
REMARK    8  A    between atoms: C_11  and  C_14 
REMARK    9  A    between atoms: C_15  and  C_18 
REMARK   10  A    between atoms: C_15  and  C_23 
REMARK   11  A    between atoms: C_21  and  C_26 
REMARK   12  A    between atoms: C_24  and  C_25 
REMARK   13  A    between atoms: C_29  and  C_32 
REMARK   14  A    between atoms: C_36  and  O_39 
ROOT
HETATM    1  O   UNL     1      17.293   2.499  93.358  1.00  0.00    -0.350 OA
HETATM    2  N   UNL     1      14.570   2.886  92.626  1.00  0.00     0.147 N 
HETATM    3  C   UNL     1      14.997   2.905  94.032  1.00  0.00     0.283 C 
HETATM    4  C   UNL     1      15.462   2.022  91.841  1.00  0.00     0.283 C 
HETATM    5  C   UNL     1      16.451   3.362  94.124  1.00  0.00     0.178 C 
HETATM    6  C   UNL     1      16.903   2.498  91.984  1.00  0.00     0.178 C 
ENDROOT
BRANCH   2   7
HETATM    7  C   UNL     1      13.182   2.440  92.513  1.00  0.00     0.277 C 
BRANCH   7   8
HETATM    8  C   UNL     1      12.250   3.559  92.198  1.00  0.00     0.011 A 
HETATM    9  C   UNL     1      11.689   4.311  93.231  1.00  0.00    -0.002 A 
HETATM   10  C   UNL     1      10.815   5.357  92.937  1.00  0.00     0.008 A 
HETATM   11  C   UNL     1      10.504   5.653  91.610  1.00  0.00     0.042 A 
HETATM   12  C   UNL     1      11.063   4.903  90.577  1.00  0.00     0.008 A 
HETATM   13  C   UNL     1      11.937   3.856  90.871  1.00  0.00    -0.002 A 
BRANCH  11  14
HETATM   14  C   UNL     1       9.609   6.727  91.308  1.00  0.00    -0.059 C 
HETATM   15  C   UNL     1       8.857   7.631  91.055  1.00  0.00    -0.059 C 
BRANCH  15  16
HETATM   16  C   UNL     1       7.963   8.705  90.753  1.00  0.00     0.042 A 
HETATM   17  C   UNL     1       8.250   9.574  89.699  1.00  0.00     0.008 A 
HETATM   18  C   UNL     1       7.376  10.620  89.403  1.00  0.00     0.005 A 
HETATM   19  C   UNL     1       6.236  10.773  90.165  1.00  0.00     0.056 A 
HETATM   20  C   UNL     1       5.931   9.928  91.211  1.00  0.00     0.005 A 
HETATM   21  C   UNL     1       6.804   8.882  91.508  1.00  0.00     0.008 A 
BRANCH  19  22
HETATM   22  C   UNL     1       5.307  11.889  89.850  1.00  0.00     0.254 C 
HETATM   23  O   UNL     1       4.931  12.048  88.691  1.00  0.00    -0.268 OA
HETATM   24  N   UNL     1       4.908  12.670  90.926  1.00  0.00    -0.335 N 
HETATM   25  HN  UNL     1       5.240  12.464  91.860  1.00  0.00     0.164 HD
BRANCH  24  26
HETATM   26  C   UNL     1       3.991  13.773  90.786  1.00  0.00     0.169 C 
BRANCH  26  27
HETATM   27  C   UNL     1       2.612  13.337  90.276  1.00  0.00     0.138 C 
HETATM   28  C   UNL     1       2.256  11.915  90.696  1.00  0.00     0.034 C 
BRANCH  27  29
HETATM   29  O   UNL     1       1.615  14.230  90.773  1.00  0.00    -0.383 OA
HETATM   30  H   UNL     1       1.633  14.197  91.744  1.00  0.00     0.210 HD
ENDBRANCH  27  29
ENDBRANCH  26  27
BRANCH  26  31
HETATM   31  C   UNL     1       3.888  14.468  92.139  1.00  0.00     0.194 C 
HETATM   32  O   UNL     1       3.493  15.625  92.270  1.00  0.00    -0.289 OA
BRANCH  31  33
HETATM   33  C   UNL     1       4.320  13.666  93.168  1.00  0.00     0.053 C 
BRANCH  33  34
HETATM   34  C   UNL     1       3.327  13.216  94.049  1.00  0.00     0.220 C 
BRANCH  34  35
HETATM   35  O   UNL     1       2.269  13.807  93.764  1.00  0.00    -0.371 OA
HETATM   36  H   UNL     1       2.370  14.547  94.342  1.00  0.00     0.211 HD
ENDBRANCH  34  35
BRANCH  34  37
HETATM   37  C   UNL     1       3.174  11.819  94.054  1.00  0.00     0.185 C 
HETATM   38  O   UNL     1       1.887  12.120  94.119  1.00  0.00    -0.647 OA
BRANCH  37  39
HETATM   39  O   UNL     1       3.888  10.861  94.049  1.00  0.00    -0.774 OA
HETATM   40  H   UNL     1       4.598  10.872  93.164  1.00  0.00     0.167 HD
ENDBRANCH  37  39
ENDBRANCH  34  37
ENDBRANCH  33  34
ENDBRANCH  31  33
ENDBRANCH  26  31
ENDBRANCH  24  26
ENDBRANCH  19  22
ENDBRANCH  15  16
ENDBRANCH  11  14
ENDBRANCH   7   8
ENDBRANCH   2   7
TORSDOF 14
ENDMDL
MODEL 5
REMARK VINA RESULT:      -3.6      1.623      3.172
REMARK  14 active torsions:
REMARK  status: ('A' for Active; 'I' for Inactive)
REMARK    1  A    between atoms: O_2  and  C_18 
REMARK    2  A    between atoms: C_5  and  C_8 
REMARK    3  A    between atoms: C_5  and  O_35 
REMARK    4  A    between atoms: C_5  and  C_36 
REMARK    5  A    between atoms: N_6  and  C_11 
REMARK    6  A    between atoms: N_7  and  C_15 
REMARK       I    between atoms: N_7  and  C_24 
REMARK    7  A    between atoms: C_8  and  C_23 
REMARK    8  A    between atoms: C_11  and  C_14 
REMARK    9  A    between atoms: C_15  and  C_18 
REMARK   10  A    between atoms: C_15  and  C_23 
REMARK   11  A    between atoms: C_21  and  C_26 
REMARK   12  A    between atoms: C_24  and  C_25 
REMARK   13  A    between atoms: C_29  and  C_32 
REMARK   14  A    between atoms: C_36  and  O_39 
ROOT
HETATM    1  O   UNL     1      15.672   3.805  91.715  1.00  0.00    -0.350 OA
HETATM    2  N   UNL     1      13.381   2.294  92.468  1.00  0.00     0.147 N 
HETATM    3  C   UNL     1      13.310   3.328  91.426  1.00  0.00     0.283 C 
HETATM    4  C   UNL     1      14.435   2.626  93.436  1.00  0.00     0.283 C 
HETATM    5  C   UNL     1      14.671   3.474  90.750  1.00  0.00     0.178 C 
HETATM    6  C   UNL     1      15.768   2.789  92.714  1.00  0.00     0.178 C 
ENDROOT
BRANCH   2   7
HETATM    7  C   UNL     1      12.089   2.144  93.137  1.00  0.00     0.277 C 
BRANCH   7   8
HETATM    8  C   UNL     1      11.172   3.286  92.863  1.00  0.00     0.011 A 
HETATM    9  C   UNL     1      10.256   3.207  91.813  1.00  0.00    -0.002 A 
HETATM   10  C   UNL     1       9.398   4.277  91.554  1.00  0.00     0.008 A 
HETATM   11  C   UNL     1       9.456   5.423  92.347  1.00  0.00     0.042 A 
HETATM   12  C   UNL     1      10.370   5.502  93.395  1.00  0.00     0.008 A 
HETATM   13  C   UNL     1      11.228   4.434  93.654  1.00  0.00    -0.002 A 
BRANCH  11  14
HETATM   14  C   UNL     1       8.574   6.518  92.082  1.00  0.00    -0.059 C 
HETATM   15  C   UNL     1       7.834   7.439  91.860  1.00  0.00    -0.059 C 
BRANCH  15  16
HETATM   16  C   UNL     1       6.953   8.534  91.595  1.00  0.00     0.042 A 
HETATM   17  C   UNL     1       5.572   8.340  91.631  1.00  0.00     0.008 A 
HETATM   18  C   UNL     1       4.712   9.409  91.376  1.00  0.00     0.005 A 
HETATM   19  C   UNL     1       5.253  10.645  91.091  1.00  0.00     0.056 A 
HETATM   20  C   UNL     1       6.614  10.862  91.048  1.00  0.00     0.005 A 
HETATM   21  C   UNL     1       7.474   9.794  91.304  1.00  0.00     0.008 A 
BRANCH  19  22
HETATM   22  C   UNL     1       4.337  11.783  90.817  1.00  0.00     0.254 C 
HETATM   23  O   UNL     1       3.389  11.619  90.052  1.00  0.00    -0.268 OA
HETATM   24  N   UNL     1       4.619  12.966  91.485  1.00  0.00    -0.335 N 
HETATM   25  HN  UNL     1       5.406  13.020  92.122  1.00  0.00     0.164 HD
BRANCH  24  26
HETATM   26  C   UNL     1       3.810  14.149  91.343  1.00  0.00     0.169 C 
BRANCH  26  27
HETATM   27  C   UNL     1       3.768  14.670  89.900  1.00  0.00     0.138 C 
HETATM   28  C   UNL     1       5.141  14.660  89.236  1.00  0.00     0.034 C 
BRANCH  27  29
HETATM   29  O   UNL     1       2.874  13.868  89.129  1.00  0.00    -0.383 OA
HETATM   30  H   UNL     1       3.275  13.718  88.256  1.00  0.00     0.210 HD
ENDBRANCH  27  29
ENDBRANCH  26  27
BRANCH  26  31
HETATM   31  C   UNL     1       2.411  13.822  91.854  1.00  0.00     0.194 C 
HETATM   32  O   UNL     1       1.386  14.200  91.291  1.00  0.00    -0.289 OA
BRANCH  31  33
HETATM   33  C   UNL     1       2.442  13.099  93.022  1.00  0.00     0.053 C 
BRANCH  33  34
HETATM   34  C   UNL     1       1.596  11.982  93.071  1.00  0.00     0.220 C 
BRANCH  34  35
HETATM   35  O   UNL     1       1.360  11.632  91.899  1.00  0.00    -0.371 OA
HETATM   36  H   UNL     1       0.648  12.228  91.723  1.00  0.00     0.211 HD
ENDBRANCH  34  35
BRANCH  34  37
HETATM   37  C   UNL     1       2.103  10.929  93.851  1.00  0.00     0.185 C 
HETATM   38  O   UNL     1       3.069  11.797  94.108  1.00  0.00    -0.647 OA
BRANCH  37  39
HETATM   39  O   UNL     1       1.803   9.799  94.095  1.00  0.00    -0.774 OA
HETATM   40  H   UNL     1       2.376   9.064  93.448  1.00  0.00     0.167 HD
ENDBRANCH  37  39
ENDBRANCH  34  37
ENDBRANCH  33  34
ENDBRANCH  31  33
ENDBRANCH  26  31
ENDBRANCH  24  26
ENDBRANCH  19  22
ENDBRANCH  15  16
ENDBRANCH  11  14
ENDBRANCH   7   8
ENDBRANCH   2   7
TORSDOF 14
ENDMDL
