MODEL 1
REMARK VINA RESULT:      -6.8      0.000      0.000
REMARK  14 active torsions:
REMARK  status: ('A' for Active; 'I' for Inactive)
REMARK    1  A    between atoms: O_2  and  C_18 
REMARK    2  A    between atoms: C_5  and  C_8 
REMARK    3  A    between atoms: C_5  and  O_35 
REMARK    4  A    between atoms: C_5  and  C_36 
REMARK    5  A    between atoms: N_6  and  C_11 
REMARK    6  A    between atoms: N_7  and  C_15 
REMARK       I    between atoms: N_7  and  C_24 
REMARK    7  A    between atoms: C_8  and  C_23 
REMARK    8  A    between atoms: C_11  and  C_14 
REMARK    9  A    between atoms: C_15  and  C_18 
REMARK   10  A    between atoms: C_15  and  C_23 
REMARK   11  A    between atoms: C_21  and  C_26 
REMARK   12  A    between atoms: C_24  and  C_25 
REMARK   13  A    between atoms: C_29  and  C_32 
REMARK   14  A    between atoms: C_36  and  O_39 
ROOT
HETATM    1  O   UNL     1      16.047   4.177  94.120  1.00  0.00    -0.350 OA
HETATM    2  N   UNL     1      14.420   2.702  92.309  1.00  0.00     0.147 N 
HETATM    3  C   UNL     1      14.433   4.172  92.308  1.00  0.00     0.283 C 
HETATM    4  C   UNL     1      14.724   2.197  93.655  1.00  0.00     0.283 C 
HETATM    5  C   UNL     1      15.783   4.677  92.808  1.00  0.00     0.178 C 
HETATM    6  C   UNL     1      16.067   2.750  94.124  1.00  0.00     0.178 C 
ENDROOT
BRANCH   2   7
HETATM    7  C   UNL     1      13.131   2.195  91.843  1.00  0.00     0.277 C 
BRANCH   7   8
HETATM    8  C   UNL     1      12.080   3.253  91.816  1.00  0.00     0.011 A 
HETATM    9  C   UNL     1      11.586   3.774  93.013  1.00  0.00    -0.002 A 
HETATM   10  C   UNL     1      10.602   4.762  92.990  1.00  0.00     0.008 A 
HETATM   11  C   UNL     1      10.114   5.230  91.770  1.00  0.00     0.042 A 
HETATM   12  C   UNL     1      10.607   4.711  90.575  1.00  0.00     0.008 A 
HETATM   13  C   UNL     1      11.591   3.722  90.597  1.00  0.00    -0.002 A 
BRANCH  11  14
HETATM   14  C   UNL     1       9.106   6.245  91.746  1.00  0.00    -0.059 C 
HETATM   15  C   UNL     1       8.259   7.098  91.727  1.00  0.00    -0.059 C 
BRANCH  15  16
HETATM   16  C   UNL     1       7.252   8.113  91.704  1.00  0.00     0.042 A 
HETATM   17  C   UNL     1       6.343   8.167  90.647  1.00  0.00     0.008 A 
HETATM   18  C   UNL     1       5.359   9.156  90.626  1.00  0.00     0.005 A 
HETATM   19  C   UNL     1       5.306  10.066  91.661  1.00  0.00     0.056 A 
HETATM   20  C   UNL     1       6.194  10.034  92.716  1.00  0.00     0.005 A 
HETATM   21  C   UNL     1       7.178   9.046  92.738  1.00  0.00     0.008 A 
BRANCH  19  22
HETATM   22  C   UNL     1       4.259  11.120  91.637  1.00  0.00     0.254 C 
HETATM   23  O   UNL     1       3.076  10.790  91.651  1.00  0.00    -0.268 OA
HETATM   24  N   UNL     1       4.716  12.431  91.625  1.00  0.00    -0.335 N 
HETATM   25  HN  UNL     1       5.710  12.628  91.640  1.00  0.00     0.164 HD
BRANCH  24  26
HETATM   26  C   UNL     1       3.825  13.563  91.626  1.00  0.00     0.169 C 
BRANCH  26  27
HETATM   27  C   UNL     1       3.614  14.152  93.026  1.00  0.00     0.138 C 
HETATM   28  C   UNL     1       2.221  13.865  93.577  1.00  0.00     0.034 C 
BRANCH  27  29
HETATM   29  O   UNL     1       4.586  13.613  93.922  1.00  0.00    -0.383 OA
HETATM   30  H   UNL     1       4.783  14.284  94.597  1.00  0.00     0.210 HD
ENDBRANCH  27  29
ENDBRANCH  26  27
BRANCH  26  31
HETATM   31  C   UNL     1       4.393  14.604  90.667  1.00  0.00     0.194 C 
HETATM   32  O   UNL     1       5.171  15.487  91.021  1.00  0.00    -0.289 OA
BRANCH  31  33
HETATM   33  C   UNL     1       3.904  14.456  89.391  1.00  0.00     0.053 C 
BRANCH  33  34
HETATM   34  C   UNL     1       4.812  13.967  88.442  1.00  0.00     0.220 C 
BRANCH  34  35
HETATM   35  O   UNL     1       5.962  14.197  88.863  1.00  0.00    -0.371 OA
HETATM   36  H   UNL     1       6.388  13.430  88.511  1.00  0.00     0.211 HD
ENDBRANCH  34  35
BRANCH  34  37
HETATM   37  C   UNL     1       4.620  12.610  88.130  1.00  0.00     0.185 C 
HETATM   38  O   UNL     1       5.793  12.471  88.728  1.00  0.00    -0.647 OA
BRANCH  37  39
HETATM   39  O   UNL     1       3.804  11.952  87.557  1.00  0.00    -0.774 OA
HETATM   40  H   UNL     1       3.051  12.602  87.012  1.00  0.00     0.167 HD
ENDBRANCH  37  39
ENDBRANCH  34  37
ENDBRANCH  33  34
ENDBRANCH  31  33
ENDBRANCH  26  31
ENDBRANCH  24  26
ENDBRANCH  19  22
ENDBRANCH  15  16
ENDBRANCH  11  14
ENDBRANCH   7   8
ENDBRANCH   2   7
TORSDOF 14
ENDMDL
MODEL 2
REMARK VINA RESULT:      -4.8      2.677     12.550
REMARK  14 active torsions:
REMARK  status: ('A' for Active; 'I' for Inactive)
REMARK    1  A    between atoms: O_2  and  C_18 
REMARK    2  A    between atoms: C_5  and  C_8 
REMARK    3  A    between atoms: C_5  and  O_35 
REMARK    4  A    between atoms: C_5  and  C_36 
REMARK    5  A    between atoms: N_6  and  C_11 
REMARK    6  A    between atoms: N_7  and  C_15 
REMARK       I    between atoms: N_7  and  C_24 
REMARK    7  A    between atoms: C_8  and  C_23 
REMARK    8  A    between atoms: C_11  and  C_14 
REMARK    9  A    between atoms: C_15  and  C_18 
REMARK   10  A    between atoms: C_15  and  C_23 
REMARK   11  A    between atoms: C_21  and  C_26 
REMARK   12  A    between atoms: C_24  and  C_25 
REMARK   13  A    between atoms: C_29  and  C_32 
REMARK   14  A    between atoms: C_36  and  O_39 
ROOT
HETATM    1  O   UNL     1       3.071  14.631  94.057  1.00  0.00    -0.350 OA
HETATM    2  N   UNL     1       2.961  14.714  91.214  1.00  0.00     0.147 N 
HETATM    3  C   UNL     1       1.897  14.080  92.005  1.00  0.00     0.283 C 
HETATM    4  C   UNL     1       4.241  14.630  91.932  1.00  0.00     0.283 C 
HETATM    5  C   UNL     1       1.816  14.736  93.381  1.00  0.00     0.178 C 
HETATM    6  C   UNL     1       4.105  15.271  93.309  1.00  0.00     0.178 C 
ENDROOT
BRANCH   2   7
HETATM    7  C   UNL     1       3.064  14.094  89.894  1.00  0.00     0.277 C 
BRANCH   7   8
HETATM    8  C   UNL     1       3.971  12.911  89.892  1.00  0.00     0.011 A 
HETATM    9  C   UNL     1       5.216  12.989  89.267  1.00  0.00    -0.002 A 
HETATM   10  C   UNL     1       6.064  11.882  89.262  1.00  0.00     0.008 A 
HETATM   11  C   UNL     1       5.668  10.698  89.884  1.00  0.00     0.042 A 
HETATM   12  C   UNL     1       4.425  10.619  90.508  1.00  0.00     0.008 A 
HETATM   13  C   UNL     1       3.576  11.726  90.513  1.00  0.00    -0.002 A 
BRANCH  11  14
HETATM   14  C   UNL     1       6.539   9.563  89.880  1.00  0.00    -0.059 C 
HETATM   15  C   UNL     1       7.271   8.610  89.877  1.00  0.00    -0.059 C 
BRANCH  15  16
HETATM   16  C   UNL     1       8.143   7.476  89.874  1.00  0.00     0.042 A 
HETATM   17  C   UNL     1       8.887   7.167  91.012  1.00  0.00     0.008 A 
HETATM   18  C   UNL     1       9.735   6.059  91.010  1.00  0.00     0.005 A 
HETATM   19  C   UNL     1       9.819   5.286  89.871  1.00  0.00     0.056 A 
HETATM   20  C   UNL     1       9.094   5.571  88.733  1.00  0.00     0.005 A 
HETATM   21  C   UNL     1       8.245   6.678  88.734  1.00  0.00     0.008 A 
BRANCH  19  22
HETATM   22  C   UNL     1      10.724   4.108  89.868  1.00  0.00     0.254 C 
HETATM   23  O   UNL     1      10.443   3.138  89.168  1.00  0.00    -0.268 OA
HETATM   24  N   UNL     1      11.858   4.210  90.661  1.00  0.00    -0.335 N 
HETATM   25  HN  UNL     1      12.037   5.053  91.194  1.00  0.00     0.164 HD
BRANCH  24  26
HETATM   26  C   UNL     1      12.843   3.162  90.745  1.00  0.00     0.169 C 
BRANCH  26  27
HETATM   27  C   UNL     1      14.279   3.699  90.800  1.00  0.00     0.138 C 
HETATM   28  C   UNL     1      15.123   3.228  89.621  1.00  0.00     0.034 C 
BRANCH  27  29
HETATM   29  O   UNL     1      14.254   5.126  90.811  1.00  0.00    -0.383 OA
HETATM   30  H   UNL     1      13.937   5.419  91.682  1.00  0.00     0.210 HD
ENDBRANCH  27  29
ENDBRANCH  26  27
BRANCH  26  31
HETATM   31  C   UNL     1      12.520   2.317  91.973  1.00  0.00     0.194 C 
HETATM   32  O   UNL     1      11.373   2.015  92.296  1.00  0.00    -0.289 OA
BRANCH  31  33
HETATM   33  C   UNL     1      13.648   1.976  92.680  1.00  0.00     0.053 C 
BRANCH  33  34
HETATM   34  C   UNL     1      13.822   2.632  93.906  1.00  0.00     0.220 C 
BRANCH  34  35
HETATM   35  O   UNL     1      15.045   2.721  94.121  1.00  0.00    -0.371 OA
HETATM   36  H   UNL     1      15.235   1.797  94.193  1.00  0.00     0.211 HD
ENDBRANCH  34  35
BRANCH  34  37
HETATM   37  C   UNL     1      13.178   3.880  93.970  1.00  0.00     0.185 C 
HETATM   38  O   UNL     1      14.419   4.341  93.972  1.00  0.00    -0.647 OA
BRANCH  37  39
HETATM   39  O   UNL     1      12.055   4.281  94.038  1.00  0.00    -0.774 OA
HETATM   40  H   UNL     1      11.572   4.009  95.028  1.00  0.00     0.167 HD
ENDBRANCH  37  39
ENDBRANCH  34  37
ENDBRANCH  33  34
ENDBRANCH  31  33
ENDBRANCH  26  31
ENDBRANCH  24  26
ENDBRANCH  19  22
ENDBRANCH  15  16
ENDBRANCH  11  14
ENDBRANCH   7   8
ENDBRANCH   2   7
TORSDOF 14
ENDMDL
MODEL 3
REMARK VINA RESULT:      -4.0      2.919     12.251
REMARK  14 active torsions:
REMARK  status: ('A' for Active; 'I' for Inactive)
REMARK    1  A    between atoms: O_2  and  C_18 
REMARK    2  A    between atoms: C_5  and  C_8 
REMARK    3  A    between atoms: C_5  and  O_35 
REMARK    4  A    between atoms: C_5  and  C_36 
REMARK    5  A    between atoms: N_6  and  C_11 
REMARK    6  A    between atoms: N_7  and  C_15 
REMARK       I    between atoms: N_7  and  C_24 
REMARK    7  A    between atoms: C_8  and  C_23 
REMARK    8  A    between atoms: C_11  and  C_14 
REMARK    9  A    between atoms: C_15  and  C_18 
REMARK   10  A    between atoms: C_15  and  C_23 
REMARK   11  A    between atoms: C_21  and  C_26 
REMARK   12  A    between atoms: C_24  and  C_25 
REMARK   13  A    between atoms: C_29  and  C_32 
REMARK   14  A    between atoms: C_36  and  O_39 
ROOT
HETATM    1  O   UNL     1       2.698  14.412  93.900  1.00  0.00    -0.350 OA
HETATM    2  N   UNL     1       2.884  14.936  91.109  1.00  0.00     0.147 N 
HETATM    3  C   UNL     1       1.847  14.050  91.656  1.00  0.00     0.283 C 
HETATM    4  C   UNL     1       4.077  14.905  91.966  1.00  0.00     0.283 C 
HETATM    5  C   UNL     1       1.522  14.460  93.091  1.00  0.00     0.178 C 
HETATM    6  C   UNL     1       3.700  15.294  93.392  1.00  0.00     0.178 C 
ENDROOT
BRANCH   2   7
HETATM    7  C   UNL     1       3.219  14.555  89.738  1.00  0.00     0.277 C 
BRANCH   7   8
HETATM    8  C   UNL     1       4.157  13.397  89.683  1.00  0.00     0.011 A 
HETATM    9  C   UNL     1       5.340  13.493  88.950  1.00  0.00    -0.002 A 
HETATM   10  C   UNL     1       6.217  12.410  88.896  1.00  0.00     0.008 A 
HETATM   11  C   UNL     1       5.912  11.233  89.578  1.00  0.00     0.042 A 
HETATM   12  C   UNL     1       4.731  11.136  90.312  1.00  0.00     0.008 A 
HETATM   13  C   UNL     1       3.853  12.218  90.365  1.00  0.00    -0.002 A 
BRANCH  11  14
HETATM   14  C   UNL     1       6.813  10.122  89.525  1.00  0.00    -0.059 C 
HETATM   15  C   UNL     1       7.570   9.190  89.481  1.00  0.00    -0.059 C 
BRANCH  15  16
HETATM   16  C   UNL     1       8.471   8.081  89.428  1.00  0.00     0.042 A 
HETATM   17  C   UNL     1       8.686   7.304  90.567  1.00  0.00     0.008 A 
HETATM   18  C   UNL     1       9.563   6.220  90.515  1.00  0.00     0.005 A 
HETATM   19  C   UNL     1      10.204   5.938  89.327  1.00  0.00     0.056 A 
HETATM   20  C   UNL     1      10.009   6.691  88.188  1.00  0.00     0.005 A 
HETATM   21  C   UNL     1       9.132   7.774  88.239  1.00  0.00     0.008 A 
BRANCH  19  22
HETATM   22  C   UNL     1      11.139   4.784  89.272  1.00  0.00     0.254 C 
HETATM   23  O   UNL     1      11.235   4.138  88.232  1.00  0.00    -0.268 OA
HETATM   24  N   UNL     1      11.869   4.538  90.427  1.00  0.00    -0.335 N 
HETATM   25  HN  UNL     1      11.755   5.131  91.241  1.00  0.00     0.164 HD
BRANCH  24  26
HETATM   26  C   UNL     1      12.833   3.472  90.523  1.00  0.00     0.169 C 
BRANCH  26  27
HETATM   27  C   UNL     1      14.273   3.984  90.650  1.00  0.00     0.138 C 
HETATM   28  C   UNL     1      14.655   4.303  92.091  1.00  0.00     0.034 C 
BRANCH  27  29
HETATM   29  O   UNL     1      15.175   3.003  90.138  1.00  0.00    -0.383 OA
HETATM   30  H   UNL     1      14.875   2.128  90.437  1.00  0.00     0.210 HD
ENDBRANCH  27  29
ENDBRANCH  26  27
BRANCH  26  31
HETATM   31  C   UNL     1      12.448   2.601  91.714  1.00  0.00     0.194 C 
HETATM   32  O   UNL     1      12.435   1.372  91.668  1.00  0.00    -0.289 OA
BRANCH  31  33
HETATM   33  C   UNL     1      12.085   3.348  92.808  1.00  0.00     0.053 C 
BRANCH  33  34
HETATM   34  C   UNL     1      10.896   4.079  92.681  1.00  0.00     0.220 C 
BRANCH  34  35
HETATM   35  O   UNL     1       9.958   3.265  92.583  1.00  0.00    -0.371 OA
HETATM   36  H   UNL     1       9.615   3.557  91.752  1.00  0.00     0.211 HD
ENDBRANCH  34  35
BRANCH  34  37
HETATM   37  C   UNL     1      10.693   5.004  93.720  1.00  0.00     0.185 C 
HETATM   38  O   UNL     1      11.880   4.575  94.118  1.00  0.00    -0.647 OA
BRANCH  37  39
HETATM   39  O   UNL     1       9.831   5.755  94.066  1.00  0.00    -0.774 OA
HETATM   40  H   UNL     1       8.834   5.224  94.179  1.00  0.00     0.167 HD
ENDBRANCH  37  39
ENDBRANCH  34  37
ENDBRANCH  33  34
ENDBRANCH  31  33
ENDBRANCH  26  31
ENDBRANCH  24  26
ENDBRANCH  19  22
ENDBRANCH  15  16
ENDBRANCH  11  14
ENDBRANCH   7   8
ENDBRANCH   2   7
TORSDOF 14
ENDMDL
MODEL 4
REMARK VINA RESULT:      -3.9      1.641      2.114
REMARK  14 active torsions:
REMARK  status: ('A' for Active; 'I' for Inactive)
REMARK    1  A    between atoms: O_2  and  C_18 
REMARK    2  A    between atoms: C_5  and  C_8 
REMARK    3  A    between atoms: C_5  and  O_35 
REMARK    4  A    between atoms: C_5  and  C_36 
REMARK    5  A    between atoms: N_6  and  C_11 
REMARK    6  A    between atoms: N_7  and  C_15 
REMARK       I    between atoms: N_7  and  C_24 
REMARK    7  A    between atoms: C_8  and  C_23 
REMARK    8  A    between atoms: C_11  and  C_14 
REMARK    9  A    between atoms: C_15  and  C_18 
REMARK   10  A    between atoms: C_15  and  C_23 
REMARK   11  A    between atoms: C_21  and  C_26 
REMARK   12  A    between atoms: C_24  and  C_25 
REMARK   13  A    between atoms: C_29  and  C_32 
REMARK   14  A    between atoms: C_36  and  O_39 
ROOT
HETATM    1  O   UNL     1      15.579   3.549  90.756  1.00  0.00    -0.350 OA
HETATM    2  N   UNL     1      13.392   2.808  92.421  1.00  0.00     0.147 N 
HETATM    3  C   UNL     1      13.359   4.033  91.609  1.00  0.00     0.283 C 
HETATM    4  C   UNL     1      14.779   2.480  92.781  1.00  0.00     0.283 C 
HETATM    5  C   UNL     1      14.238   3.858  90.373  1.00  0.00     0.178 C 
HETATM    6  C   UNL     1      15.623   2.342  91.519  1.00  0.00     0.178 C 
ENDROOT
BRANCH   2   7
HETATM    7  C   UNL     1      12.565   2.957  93.617  1.00  0.00     0.277 C 
BRANCH   7   8
HETATM    8  C   UNL     1      11.400   3.859  93.393  1.00  0.00     0.011 A 
HETATM    9  C   UNL     1      10.428   3.521  92.450  1.00  0.00    -0.002 A 
HETATM   10  C   UNL     1       9.338   4.365  92.238  1.00  0.00     0.008 A 
HETATM   11  C   UNL     1       9.220   5.546  92.970  1.00  0.00     0.042 A 
HETATM   12  C   UNL     1      10.189   5.885  93.912  1.00  0.00     0.008 A 
HETATM   13  C   UNL     1      11.280   5.042  94.123  1.00  0.00    -0.002 A 
BRANCH  11  14
HETATM   14  C   UNL     1       8.100   6.411  92.754  1.00  0.00    -0.059 C 
HETATM   15  C   UNL     1       7.160   7.138  92.572  1.00  0.00    -0.059 C 
BRANCH  15  16
HETATM   16  C   UNL     1       6.042   8.003  92.356  1.00  0.00     0.042 A 
HETATM   17  C   UNL     1       5.943   9.202  93.061  1.00  0.00     0.008 A 
HETATM   18  C   UNL     1       4.854  10.047  92.847  1.00  0.00     0.005 A 
HETATM   19  C   UNL     1       3.890   9.674  91.934  1.00  0.00     0.056 A 
HETATM   20  C   UNL     1       3.965   8.493  91.225  1.00  0.00     0.005 A 
HETATM   21  C   UNL     1       5.054   7.648  91.438  1.00  0.00     0.008 A 
BRANCH  19  22
HETATM   22  C   UNL     1       2.729  10.573  91.708  1.00  0.00     0.254 C 
HETATM   23  O   UNL     1       1.620  10.082  91.509  1.00  0.00    -0.268 OA
HETATM   24  N   UNL     1       2.993  11.934  91.767  1.00  0.00    -0.335 N 
HETATM   25  HN  UNL     1       3.931  12.267  91.961  1.00  0.00     0.164 HD
BRANCH  24  26
HETATM   26  C   UNL     1       1.968  12.932  91.593  1.00  0.00     0.169 C 
BRANCH  26  27
HETATM   27  C   UNL     1       1.368  13.404  92.923  1.00  0.00     0.138 C 
HETATM   28  C   UNL     1       1.966  12.679  94.124  1.00  0.00     0.034 C 
BRANCH  27  29
HETATM   29  O   UNL     1       1.586  14.807  93.074  1.00  0.00    -0.383 OA
HETATM   30  H   UNL     1       2.232  14.940  93.788  1.00  0.00     0.210 HD
ENDBRANCH  27  29
ENDBRANCH  26  27
BRANCH  26  31
HETATM   31  C   UNL     1       2.576  14.094  90.815  1.00  0.00     0.194 C 
HETATM   32  O   UNL     1       2.645  15.237  91.263  1.00  0.00    -0.289 OA
BRANCH  31  33
HETATM   33  C   UNL     1       2.993  13.718  89.561  1.00  0.00     0.053 C 
BRANCH  33  34
HETATM   34  C   UNL     1       4.343  13.960  89.269  1.00  0.00     0.220 C 
BRANCH  34  35
HETATM   35  O   UNL     1       5.007  13.696  90.289  1.00  0.00    -0.371 OA
HETATM   36  H   UNL     1       5.831  14.065  90.011  1.00  0.00     0.211 HD
ENDBRANCH  34  35
BRANCH  34  37
HETATM   37  C   UNL     1       4.805  13.265  88.138  1.00  0.00     0.185 C 
HETATM   38  O   UNL     1       5.954  13.843  88.450  1.00  0.00    -0.647 OA
BRANCH  37  39
HETATM   39  O   UNL     1       4.340  12.551  87.301  1.00  0.00    -0.774 OA
HETATM   40  H   UNL     1       3.463  13.040  86.773  1.00  0.00     0.167 HD
ENDBRANCH  37  39
ENDBRANCH  34  37
ENDBRANCH  33  34
ENDBRANCH  31  33
ENDBRANCH  26  31
ENDBRANCH  24  26
ENDBRANCH  19  22
ENDBRANCH  15  16
ENDBRANCH  11  14
ENDBRANCH   7   8
ENDBRANCH   2   7
TORSDOF 14
ENDMDL
