MODEL 1
REMARK VINA RESULT:      -6.5      0.000      0.000
REMARK  11 active torsions:
REMARK  status: ('A' for Active; 'I' for Inactive)
REMARK    1  A    between atoms: O_2  and  C_18 
REMARK    2  A    between atoms: O_5  and  P_8 
REMARK    3  A    between atoms: N_6  and  C_11 
REMARK    4  A    between atoms: N_7  and  C_15 
REMARK       I    between atoms: N_7  and  C_24 
REMARK    5  A    between atoms: P_8  and  C_23 
REMARK    6  A    between atoms: C_11  and  C_14 
REMARK    7  A    between atoms: C_15  and  C_18 
REMARK    8  A    between atoms: C_15  and  C_23 
REMARK    9  A    between atoms: C_21  and  C_26 
REMARK   10  A    between atoms: C_24  and  C_25 
REMARK   11  A    between atoms: C_29  and  C_32 
ROOT
HETATM    1  O   UNL     1      16.323   4.268  94.108  1.00  0.00     0.000 OA
HETATM    2  N   UNL     1      14.547   2.710  92.520  1.00  0.00     0.000 N 
HETATM    3  C   UNL     1      14.501   4.179  92.507  1.00  0.00     0.000 C 
HETATM    4  C   UNL     1      15.033   2.234  93.822  1.00  0.00     0.000 C 
HETATM    5  C   UNL     1      15.882   4.742  92.834  1.00  0.00     0.000 C 
HETATM    6  C   UNL     1      16.400   2.842  94.119  1.00  0.00     0.000 C 
ENDROOT
BRANCH   2   7
HETATM    7  C   UNL     1      13.231   2.149  92.219  1.00  0.00     0.000 C 
BRANCH   7   8
HETATM    8  C   UNL     1      12.199   3.203  92.007  1.00  0.00     0.000 A 
HETATM    9  C   UNL     1      11.823   3.559  90.711  1.00  0.00     0.000 A 
HETATM   10  C   UNL     1      10.859   4.547  90.511  1.00  0.00     0.000 A 
HETATM   11  C   UNL     1      10.270   5.177  91.606  1.00  0.00     0.000 A 
HETATM   12  C   UNL     1      10.644   4.822  92.901  1.00  0.00     0.000 A 
HETATM   13  C   UNL     1      11.609   3.835  93.101  1.00  0.00     0.000 A 
BRANCH  11  14
HETATM   14  C   UNL     1       9.279   6.189  91.401  1.00  0.00     0.000 C 
HETATM   15  C   UNL     1       8.447   7.039  91.228  1.00  0.00     0.000 C 
BRANCH  15  16
HETATM   16  C   UNL     1       7.457   8.050  91.022  1.00  0.00     0.000 A 
HETATM   17  C   UNL     1       7.640   9.324  91.560  1.00  0.00     0.000 A 
HETATM   18  C   UNL     1       6.675  10.310  91.356  1.00  0.00     0.000 A 
HETATM   19  C   UNL     1       5.550  10.001  90.621  1.00  0.00     0.000 A 
HETATM   20  C   UNL     1       5.346   8.749  90.079  1.00  0.00     0.000 A 
HETATM   21  C   UNL     1       6.310   7.762  90.282  1.00  0.00     0.000 A 
BRANCH  19  22
HETATM   22  C   UNL     1       4.521  11.052  90.406  1.00  0.00     0.000 C 
HETATM   23  O   UNL     1       3.472  10.757  89.839  1.00  0.00     0.000 OA
HETATM   24  N   UNL     1       4.828  12.312  90.900  1.00  0.00     0.000 N 
HETATM   25  HN  UNL     1       5.705  12.476  91.380  1.00  0.00     0.000 HD
BRANCH  24  26
HETATM   26  C   UNL     1       3.923  13.429  90.791  1.00  0.00     0.000 C 
BRANCH  26  27
HETATM   27  C   UNL     1       3.282  13.806  92.133  1.00  0.00     0.000 C 
HETATM   28  C   UNL     1       2.277  12.765  92.613  1.00  0.00     0.000 C 
BRANCH  27  29
HETATM   29  O   UNL     1       4.300  13.958  93.122  1.00  0.00     0.000 OA
HETATM   30  H   UNL     1       4.679  14.849  93.035  1.00  0.00     0.000 HD
ENDBRANCH  27  29
ENDBRANCH  26  27
BRANCH  26  31
HETATM   31  C   UNL     1       4.698  14.600  90.198  1.00  0.00     0.000 C 
HETATM   32  O   UNL     1       4.950  15.625  90.830  1.00  0.00     0.000 OA
BRANCH  31  33
HETATM   33  P   UNL     1       5.038  14.386  88.884  1.00  0.00     0.000 P 
HETATM   34  H   UNL     1       4.950  15.594  88.222  1.00  0.00     0.000 HD
BRANCH  33  35
HETATM   35  O   UNL     1       4.246  13.459  88.193  1.00  0.00     0.000 OA
HETATM   36  H   UNL     1       3.405  13.557  88.671  1.00  0.00     0.000 HD
ENDBRANCH  33  35
ENDBRANCH  31  33
ENDBRANCH  26  31
ENDBRANCH  24  26
ENDBRANCH  19  22
ENDBRANCH  15  16
ENDBRANCH  11  14
ENDBRANCH   7   8
ENDBRANCH   2   7
TORSDOF 11
ENDMDL
