MODEL 1
REMARK VINA RESULT:      -6.3      0.000      0.000
REMARK  12 active torsions:
REMARK  status: ('A' for Active; 'I' for Inactive)
REMARK    1  A    between atoms: O_2  and  C_16 
REMARK    2  A    between atoms: N_5  and  C_9 
REMARK    3  A    between atoms: N_6  and  C_13 
REMARK       I    between atoms: N_6  and  C_22 
REMARK    4  A    between atoms: C_9  and  C_12 
REMARK    5  A    between atoms: C_13  and  C_16 
REMARK    6  A    between atoms: C_13  and  C_21 
REMARK    7  A    between atoms: C_19  and  C_24 
REMARK    8  A    between atoms: C_21  and  C_33 
REMARK    9  A    between atoms: C_22  and  C_23 
REMARK   10  A    between atoms: C_27  and  C_30 
REMARK   11  A    between atoms: C_33  and  C_34 
REMARK   12  A    between atoms: C_34  and  C_35 
ROOT
HETATM    1  O   UNL     1      16.347   4.285  94.112  1.00  0.00    -0.350 OA
HETATM    2  N   UNL     1      14.565   2.751  92.508  1.00  0.00     0.147 N 
HETATM    3  C   UNL     1      14.520   4.220  92.515  1.00  0.00     0.283 C 
HETATM    4  C   UNL     1      15.054   2.256  93.802  1.00  0.00     0.283 C 
HETATM    5  C   UNL     1      15.902   4.777  92.846  1.00  0.00     0.178 C 
HETATM    6  C   UNL     1      16.422   2.859  94.103  1.00  0.00     0.178 C 
ENDROOT
BRANCH   2   7
HETATM    7  C   UNL     1      13.247   2.195  92.203  1.00  0.00     0.277 C 
BRANCH   7   8
HETATM    8  C   UNL     1      12.178   3.234  92.203  1.00  0.00     0.011 A 
HETATM    9  C   UNL     1      11.853   3.899  93.386  1.00  0.00    -0.002 A 
HETATM   10  C   UNL     1      10.851   4.869  93.387  1.00  0.00     0.008 A 
HETATM   11  C   UNL     1      10.178   5.176  92.206  1.00  0.00     0.042 A 
HETATM   12  C   UNL     1      10.502   4.513  91.024  1.00  0.00     0.008 A 
HETATM   13  C   UNL     1      11.503   3.542  91.022  1.00  0.00    -0.002 A 
BRANCH  11  14
HETATM   14  C   UNL     1       9.152   6.174  92.207  1.00  0.00    -0.059 C 
HETATM   15  C   UNL     1       8.290   7.012  92.207  1.00  0.00    -0.059 C 
BRANCH  15  16
HETATM   16  C   UNL     1       7.264   8.008  92.208  1.00  0.00     0.042 A 
HETATM   17  C   UNL     1       5.948   7.652  91.914  1.00  0.00     0.008 A 
HETATM   18  C   UNL     1       4.947   8.624  91.917  1.00  0.00     0.005 A 
HETATM   19  C   UNL     1       5.285   9.928  92.214  1.00  0.00     0.056 A 
HETATM   20  C   UNL     1       6.578  10.305  92.507  1.00  0.00     0.005 A 
HETATM   21  C   UNL     1       7.580   9.334  92.504  1.00  0.00     0.008 A 
BRANCH  19  22
HETATM   22  C   UNL     1       4.218  10.963  92.216  1.00  0.00     0.254 C 
HETATM   23  O   UNL     1       3.135  10.707  92.735  1.00  0.00    -0.268 OA
HETATM   24  N   UNL     1       4.551  12.179  91.635  1.00  0.00    -0.335 N 
HETATM   25  HN  UNL     1       5.476  12.327  91.248  1.00  0.00     0.164 HD
BRANCH  24  26
HETATM   26  C   UNL     1       3.634  13.289  91.581  1.00  0.00     0.166 C 
BRANCH  26  27
HETATM   27  C   UNL     1       3.768  14.230  92.785  1.00  0.00     0.138 C 
HETATM   28  C   UNL     1       2.439  14.464  93.494  1.00  0.00     0.034 C 
BRANCH  27  29
HETATM   29  O   UNL     1       4.700  13.682  93.717  1.00  0.00    -0.383 OA
HETATM   30  H   UNL     1       4.262  13.613  94.582  1.00  0.00     0.210 HD
ENDBRANCH  27  29
ENDBRANCH  26  27
BRANCH  26  31
HETATM   31  C   UNL     1       3.875  14.029  90.270  1.00  0.00     0.181 C 
HETATM   32  O   UNL     1       3.910  15.256  90.189  1.00  0.00    -0.294 OA
BRANCH  31  33
HETATM   33  C   UNL     1       5.200  13.489  89.508  1.00  0.00     0.138 C 
BRANCH  33  34
HETATM   34  C   UNL     1       4.634  12.913  88.349  1.00  0.00     0.208 C 
HETATM   35  O   UNL     1       5.087  13.289  87.293  1.00  0.00    -0.289 OA
BRANCH  34  36
HETATM   36  C   UNL     1       3.861  11.795  88.202  1.00  0.00     0.194 C 
HETATM   37  O   UNL     1       4.014  10.511  88.738  1.00  0.00    -0.185 OA
ENDBRANCH  34  36
ENDBRANCH  33  34
ENDBRANCH  31  33
ENDBRANCH  26  31
ENDBRANCH  24  26
ENDBRANCH  19  22
ENDBRANCH  15  16
ENDBRANCH  11  14
ENDBRANCH   7   8
ENDBRANCH   2   7
TORSDOF 12
ENDMDL
