MODEL 1
REMARK VINA RESULT:      -7.3      0.000      0.000
REMARK  9 active torsions:
REMARK  status: ('A' for Active; 'I' for Inactive)
REMARK    1  A    between atoms: O_2  and  C_17 
REMARK    2  A    between atoms: N_5  and  C_10 
REMARK    3  A    between atoms: N_6  and  C_14 
REMARK       I    between atoms: N_6  and  C_23 
REMARK       I    between atoms: N_7  and  C_22 
REMARK    4  A    between atoms: C_10  and  C_13 
REMARK    5  A    between atoms: C_14  and  C_17 
REMARK    6  A    between atoms: C_14  and  C_22 
REMARK    7  A    between atoms: C_20  and  C_25 
REMARK    8  A    between atoms: C_23  and  C_24 
REMARK    9  A    between atoms: C_28  and  C_31 
ROOT
HETATM    1  O   UNL     1      16.129   4.015  94.124  1.00  0.00    -0.388 OA
HETATM    2  N   UNL     1      14.305   2.672  92.400  1.00  0.00     0.096 N 
HETATM    3  C   UNL     1      14.358   4.139  92.468  1.00  0.00     0.299 C 
HETATM    4  C   UNL     1      14.716   2.093  93.686  1.00  0.00     0.299 C 
HETATM    5  C   UNL     1      15.762   4.587  92.867  1.00  0.00     0.198 C 
HETATM    6  C   UNL     1      16.109   2.589  94.057  1.00  0.00     0.198 C 
ENDROOT
BRANCH   2   7
HETATM    7  C   UNL     1      12.965   2.220  92.029  1.00  0.00     0.311 C 
BRANCH   7   8
HETATM    8  C   UNL     1      12.048   3.354  91.721  1.00  0.00    -0.030 A 
HETATM    9  C   UNL     1      11.844   3.744  90.397  1.00  0.00     0.010 A 
HETATM   10  C   UNL     1      10.988   4.807  90.108  1.00  0.00     0.021 A 
HETATM   11  C   UNL     1      10.334   5.475  91.142  1.00  0.00     0.018 A 
HETATM   12  C   UNL     1      10.536   5.086  92.464  1.00  0.00     0.021 A 
HETATM   13  C   UNL     1      11.393   4.024  92.754  1.00  0.00     0.010 A 
BRANCH  11  14
HETATM   14  C   UNL     1       9.454   6.564  90.845  1.00  0.00    -0.061 C 
HETATM   15  C   UNL     1       8.714   7.478  90.595  1.00  0.00    -0.061 C 
BRANCH  15  16
HETATM   16  C   UNL     1       7.835   8.566  90.298  1.00  0.00     0.018 A 
HETATM   17  C   UNL     1       6.455   8.365  90.293  1.00  0.00     0.022 A 
HETATM   18  C   UNL     1       5.598   9.427  90.005  1.00  0.00     0.018 A 
HETATM   19  C   UNL     1       6.139  10.665  89.731  1.00  0.00     0.032 A 
HETATM   20  C   UNL     1       7.500  10.890  89.730  1.00  0.00     0.018 A 
HETATM   21  C   UNL     1       8.358   9.828  90.017  1.00  0.00     0.022 A 
BRANCH  19  22
HETATM   22  C   UNL     1       5.225  11.796  89.423  1.00  0.00     0.252 C 
HETATM   23  O   UNL     1       4.882  11.990  88.260  1.00  0.00    -0.268 OA
HETATM   24  N   UNL     1       4.802  12.549  90.510  1.00  0.00    -0.342 N 
HETATM   25  H   UNL     1       5.108  12.314  91.447  1.00  0.00     0.163 HD
BRANCH  24  26
HETATM   26  C   UNL     1       3.897  13.662  90.376  1.00  0.00     0.199 C 
BRANCH  26  27
HETATM   27  C   UNL     1       2.970  13.821  91.588  1.00  0.00     0.145 C 
HETATM   28  C   UNL     1       2.277  12.517  91.969  1.00  0.00     0.042 C 
BRANCH  27  29
HETATM   29  O   UNL     1       3.723  14.290  92.707  1.00  0.00    -0.393 OA
HETATM   30  H   UNL     1       3.292  15.090  93.050  1.00  0.00     0.210 HD
ENDBRANCH  27  29
ENDBRANCH  26  27
BRANCH  26  31
HETATM   31  C   UNL     1       4.732  14.917  90.148  1.00  0.00     0.220 C 
HETATM   32  O   UNL     1       5.143  15.624  91.066  1.00  0.00    -0.278 OA
HETATM   33  N   UNL     1       4.930  15.173  88.813  1.00  0.00    -0.271 NA
HETATM   34  H   UNL     1       4.533  14.664  88.032  1.00  0.00     0.127 HD
HETATM   35  H   UNL     1       4.365  16.191  88.028  1.00  0.00     0.127 HD
ENDBRANCH  26  31
ENDBRANCH  24  26
ENDBRANCH  19  22
ENDBRANCH  15  16
ENDBRANCH  11  14
ENDBRANCH   7   8
ENDBRANCH   2   7
TORSDOF 9
ENDMDL
MODEL 2
REMARK VINA RESULT:      -6.7      1.803      2.690
REMARK  9 active torsions:
REMARK  status: ('A' for Active; 'I' for Inactive)
REMARK    1  A    between atoms: O_2  and  C_17 
REMARK    2  A    between atoms: N_5  and  C_10 
REMARK    3  A    between atoms: N_6  and  C_14 
REMARK       I    between atoms: N_6  and  C_23 
REMARK       I    between atoms: N_7  and  C_22 
REMARK    4  A    between atoms: C_10  and  C_13 
REMARK    5  A    between atoms: C_14  and  C_17 
REMARK    6  A    between atoms: C_14  and  C_22 
REMARK    7  A    between atoms: C_20  and  C_25 
REMARK    8  A    between atoms: C_23  and  C_24 
REMARK    9  A    between atoms: C_28  and  C_31 
ROOT
HETATM    1  O   UNL     1      16.090   3.987  93.954  1.00  0.00    -0.388 OA
HETATM    2  N   UNL     1      14.133   2.581  92.439  1.00  0.00     0.096 N 
HETATM    3  C   UNL     1      14.348   4.024  92.265  1.00  0.00     0.299 C 
HETATM    4  C   UNL     1      14.474   2.184  93.812  1.00  0.00     0.299 C 
HETATM    5  C   UNL     1      15.792   4.377  92.612  1.00  0.00     0.198 C 
HETATM    6  C   UNL     1      15.913   2.580  94.124  1.00  0.00     0.198 C 
ENDROOT
BRANCH   2   7
HETATM    7  C   UNL     1      12.752   2.221  92.121  1.00  0.00     0.311 C 
BRANCH   7   8
HETATM    8  C   UNL     1      11.832   3.393  92.179  1.00  0.00    -0.030 A 
HETATM    9  C   UNL     1      11.617   4.051  93.391  1.00  0.00     0.010 A 
HETATM   10  C   UNL     1      10.755   5.146  93.446  1.00  0.00     0.021 A 
HETATM   11  C   UNL     1      10.111   5.584  92.289  1.00  0.00     0.018 A 
HETATM   12  C   UNL     1      10.326   4.929  91.079  1.00  0.00     0.021 A 
HETATM   13  C   UNL     1      11.187   3.833  91.023  1.00  0.00     0.010 A 
BRANCH  11  14
HETATM   14  C   UNL     1       9.228   6.709  92.346  1.00  0.00    -0.061 C 
HETATM   15  C   UNL     1       8.487   7.654  92.393  1.00  0.00    -0.061 C 
BRANCH  15  16
HETATM   16  C   UNL     1       7.605   8.778  92.449  1.00  0.00     0.018 A 
HETATM   17  C   UNL     1       7.206   9.409  91.271  1.00  0.00     0.022 A 
HETATM   18  C   UNL     1       6.343  10.504  91.325  1.00  0.00     0.018 A 
HETATM   19  C   UNL     1       5.899  10.942  92.555  1.00  0.00     0.032 A 
HETATM   20  C   UNL     1       6.280  10.336  93.734  1.00  0.00     0.018 A 
HETATM   21  C   UNL     1       7.143   9.242  93.681  1.00  0.00     0.022 A 
BRANCH  19  22
HETATM   22  C   UNL     1       4.982  12.110  92.613  1.00  0.00     0.252 C 
HETATM   23  O   UNL     1       4.728  12.620  93.701  1.00  0.00    -0.268 OA
HETATM   24  N   UNL     1       4.491  12.558  91.394  1.00  0.00    -0.342 N 
HETATM   25  H   UNL     1       4.765  12.102  90.532  1.00  0.00     0.163 HD
BRANCH  24  26
HETATM   26  C   UNL     1       3.611  13.694  91.283  1.00  0.00     0.199 C 
BRANCH  26  27
HETATM   27  C   UNL     1       3.676  14.363  89.904  1.00  0.00     0.145 C 
HETATM   28  C   UNL     1       4.947  15.183  89.713  1.00  0.00     0.042 C 
BRANCH  27  29
HETATM   29  O   UNL     1       3.612  13.365  88.886  1.00  0.00    -0.393 OA
HETATM   30  H   UNL     1       2.719  12.980  88.892  1.00  0.00     0.210 HD
ENDBRANCH  27  29
ENDBRANCH  26  27
BRANCH  26  31
HETATM   31  C   UNL     1       2.197  13.220  91.603  1.00  0.00     0.220 C 
HETATM   32  O   UNL     1       1.855  12.041  91.538  1.00  0.00    -0.278 OA
HETATM   33  N   UNL     1       1.362  14.262  91.927  1.00  0.00    -0.271 NA
HETATM   34  H   UNL     1       1.586  15.249  91.904  1.00  0.00     0.127 HD
HETATM   35  H   UNL     1       0.312  14.805  91.171  1.00  0.00     0.127 HD
ENDBRANCH  26  31
ENDBRANCH  24  26
ENDBRANCH  19  22
ENDBRANCH  15  16
ENDBRANCH  11  14
ENDBRANCH   7   8
ENDBRANCH   2   7
TORSDOF 9
ENDMDL
MODEL 3
REMARK VINA RESULT:      -5.6      2.054     12.309
REMARK  9 active torsions:
REMARK  status: ('A' for Active; 'I' for Inactive)
REMARK    1  A    between atoms: O_2  and  C_17 
REMARK    2  A    between atoms: N_5  and  C_10 
REMARK    3  A    between atoms: N_6  and  C_14 
REMARK       I    between atoms: N_6  and  C_23 
REMARK       I    between atoms: N_7  and  C_22 
REMARK    4  A    between atoms: C_10  and  C_13 
REMARK    5  A    between atoms: C_14  and  C_17 
REMARK    6  A    between atoms: C_14  and  C_22 
REMARK    7  A    between atoms: C_20  and  C_25 
REMARK    8  A    between atoms: C_23  and  C_24 
REMARK    9  A    between atoms: C_28  and  C_31 
ROOT
HETATM    1  O   UNL     1       5.608  14.950  88.947  1.00  0.00    -0.388 OA
HETATM    2  N   UNL     1       3.665  13.543  90.480  1.00  0.00     0.096 N 
HETATM    3  C   UNL     1       4.481  14.614  91.070  1.00  0.00     0.299 C 
HETATM    4  C   UNL     1       4.404  12.891  89.389  1.00  0.00     0.299 C 
HETATM    5  C   UNL     1       4.886  15.612  89.988  1.00  0.00     0.198 C 
HETATM    6  C   UNL     1       4.811  13.929  88.347  1.00  0.00     0.198 C 
ENDROOT
BRANCH   2   7
HETATM    7  C   UNL     1       3.275  12.569  91.497  1.00  0.00     0.311 C 
BRANCH   7   8
HETATM    8  C   UNL     1       4.301  11.504  91.688  1.00  0.00    -0.030 A 
HETATM    9  C   UNL     1       5.266  11.638  92.686  1.00  0.00     0.010 A 
HETATM   10  C   UNL     1       6.228  10.643  92.864  1.00  0.00     0.021 A 
HETATM   11  C   UNL     1       6.222   9.515  92.045  1.00  0.00     0.018 A 
HETATM   12  C   UNL     1       5.258   9.380  91.048  1.00  0.00     0.021 A 
HETATM   13  C   UNL     1       4.297  10.375  90.869  1.00  0.00     0.010 A 
BRANCH  11  14
HETATM   14  C   UNL     1       7.207   8.494  92.229  1.00  0.00    -0.061 C 
HETATM   15  C   UNL     1       8.034   7.635  92.384  1.00  0.00    -0.061 C 
BRANCH  15  16
HETATM   16  C   UNL     1       9.018   6.614  92.567  1.00  0.00     0.018 A 
HETATM   17  C   UNL     1       9.229   5.663  91.568  1.00  0.00     0.022 A 
HETATM   18  C   UNL     1      10.191   4.668  91.746  1.00  0.00     0.018 A 
HETATM   19  C   UNL     1      10.920   4.648  92.917  1.00  0.00     0.032 A 
HETATM   20  C   UNL     1      10.730   5.577  93.918  1.00  0.00     0.018 A 
HETATM   21  C   UNL     1       9.769   6.571  93.742  1.00  0.00     0.022 A 
BRANCH  19  22
HETATM   22  C   UNL     1      11.943   3.587  93.106  1.00  0.00     0.252 C 
HETATM   23  O   UNL     1      11.656   2.423  92.840  1.00  0.00    -0.268 OA
HETATM   24  N   UNL     1      13.184   4.014  93.559  1.00  0.00    -0.342 N 
HETATM   25  H   UNL     1      13.356   4.997  93.734  1.00  0.00     0.163 HD
BRANCH  24  26
HETATM   26  C   UNL     1      14.286   3.109  93.769  1.00  0.00     0.199 C 
BRANCH  26  27
HETATM   27  C   UNL     1      14.336   1.984  92.728  1.00  0.00     0.145 C 
HETATM   28  C   UNL     1      15.005   2.420  91.429  1.00  0.00     0.042 C 
BRANCH  27  29
HETATM   29  O   UNL     1      15.048   0.869  93.264  1.00  0.00    -0.393 OA
HETATM   30  H   UNL     1      14.787   0.074  92.769  1.00  0.00     0.210 HD
ENDBRANCH  27  29
ENDBRANCH  26  27
BRANCH  26  31
HETATM   31  C   UNL     1      15.571   3.930  93.760  1.00  0.00     0.220 C 
HETATM   32  O   UNL     1      15.605   5.117  93.440  1.00  0.00    -0.278 OA
HETATM   33  N   UNL     1      16.668   3.181  94.110  1.00  0.00    -0.271 NA
HETATM   34  H   UNL     1      16.689   2.184  94.292  1.00  0.00     0.127 HD
HETATM   35  H   UNL     1      17.715   2.733  93.290  1.00  0.00     0.127 HD
ENDBRANCH  26  31
ENDBRANCH  24  26
ENDBRANCH  19  22
ENDBRANCH  15  16
ENDBRANCH  11  14
ENDBRANCH   7   8
ENDBRANCH   2   7
TORSDOF 9
ENDMDL
MODEL 4
REMARK VINA RESULT:      -5.2      2.050     12.516
REMARK  9 active torsions:
REMARK  status: ('A' for Active; 'I' for Inactive)
REMARK    1  A    between atoms: O_2  and  C_17 
REMARK    2  A    between atoms: N_5  and  C_10 
REMARK    3  A    between atoms: N_6  and  C_14 
REMARK       I    between atoms: N_6  and  C_23 
REMARK       I    between atoms: N_7  and  C_22 
REMARK    4  A    between atoms: C_10  and  C_13 
REMARK    5  A    between atoms: C_14  and  C_17 
REMARK    6  A    between atoms: C_14  and  C_22 
REMARK    7  A    between atoms: C_20  and  C_25 
REMARK    8  A    between atoms: C_23  and  C_24 
REMARK    9  A    between atoms: C_28  and  C_31 
ROOT
HETATM    1  O   UNL     1       1.573  14.693  93.004  1.00  0.00    -0.388 OA
HETATM    2  N   UNL     1       2.897  12.617  91.576  1.00  0.00     0.096 N 
HETATM    3  C   UNL     1       3.136  14.034  91.268  1.00  0.00     0.299 C 
HETATM    4  C   UNL     1       1.539  12.439  92.106  1.00  0.00     0.299 C 
HETATM    5  C   UNL     1       2.903  14.881  92.518  1.00  0.00     0.198 C 
HETATM    6  C   UNL     1       1.342  13.323  93.334  1.00  0.00     0.198 C 
ENDROOT
BRANCH   2   7
HETATM    7  C   UNL     1       3.105  11.788  90.390  1.00  0.00     0.311 C 
BRANCH   7   8
HETATM    8  C   UNL     1       4.260  10.858  90.542  1.00  0.00    -0.030 A 
HETATM    9  C   UNL     1       4.933  10.777  91.762  1.00  0.00     0.010 A 
HETATM   10  C   UNL     1       6.015   9.908  91.905  1.00  0.00     0.021 A 
HETATM   11  C   UNL     1       6.422   9.120  90.829  1.00  0.00     0.018 A 
HETATM   12  C   UNL     1       5.751   9.200  89.611  1.00  0.00     0.021 A 
HETATM   13  C   UNL     1       4.669  10.069  89.467  1.00  0.00     0.010 A 
BRANCH  11  14
HETATM   14  C   UNL     1       7.530   8.228  90.977  1.00  0.00    -0.061 C 
HETATM   15  C   UNL     1       8.462   7.478  91.100  1.00  0.00    -0.061 C 
BRANCH  15  16
HETATM   16  C   UNL     1       9.570   6.586  91.247  1.00  0.00     0.018 A 
HETATM   17  C   UNL     1      10.061   6.290  92.518  1.00  0.00     0.022 A 
HETATM   18  C   UNL     1      11.141   5.418  92.661  1.00  0.00     0.018 A 
HETATM   19  C   UNL     1      11.703   4.862  91.531  1.00  0.00     0.032 A 
HETATM   20  C   UNL     1      11.236   5.140  90.264  1.00  0.00     0.018 A 
HETATM   21  C   UNL     1      10.157   6.011  90.119  1.00  0.00     0.022 A 
BRANCH  19  22
HETATM   22  C   UNL     1      12.855   3.935  91.684  1.00  0.00     0.252 C 
HETATM   23  O   UNL     1      13.071   3.099  90.810  1.00  0.00    -0.268 OA
HETATM   24  N   UNL     1      13.629   4.110  92.823  1.00  0.00    -0.342 N 
HETATM   25  H   UNL     1      13.404   4.839  93.489  1.00  0.00     0.163 HD
BRANCH  24  26
HETATM   26  C   UNL     1      14.792   3.306  93.100  1.00  0.00     0.199 C 
BRANCH  26  27
HETATM   27  C   UNL     1      15.842   4.050  93.934  1.00  0.00     0.145 C 
HETATM   28  C   UNL     1      17.172   3.306  93.996  1.00  0.00     0.042 C 
BRANCH  27  29
HETATM   29  O   UNL     1      16.062   5.346  93.379  1.00  0.00    -0.393 OA
HETATM   30  H   UNL     1      16.892   5.325  92.873  1.00  0.00     0.210 HD
ENDBRANCH  27  29
ENDBRANCH  26  27
BRANCH  26  31
HETATM   31  C   UNL     1      14.323   2.036  93.804  1.00  0.00     0.220 C 
HETATM   32  O   UNL     1      15.085   1.123  94.115  1.00  0.00    -0.278 OA
HETATM   33  N   UNL     1      12.964   2.026  94.006  1.00  0.00    -0.271 NA
HETATM   34  H   UNL     1      12.298   2.718  93.684  1.00  0.00     0.127 HD
HETATM   35  H   UNL     1      11.992   1.249  93.356  1.00  0.00     0.127 HD
ENDBRANCH  26  31
ENDBRANCH  24  26
ENDBRANCH  19  22
ENDBRANCH  15  16
ENDBRANCH  11  14
ENDBRANCH   7   8
ENDBRANCH   2   7
TORSDOF 9
ENDMDL
MODEL 5
REMARK VINA RESULT:      -4.7      2.170      2.928
REMARK  9 active torsions:
REMARK  status: ('A' for Active; 'I' for Inactive)
REMARK    1  A    between atoms: O_2  and  C_17 
REMARK    2  A    between atoms: N_5  and  C_10 
REMARK    3  A    between atoms: N_6  and  C_14 
REMARK       I    between atoms: N_6  and  C_23 
REMARK       I    between atoms: N_7  and  C_22 
REMARK    4  A    between atoms: C_10  and  C_13 
REMARK    5  A    between atoms: C_14  and  C_17 
REMARK    6  A    between atoms: C_14  and  C_22 
REMARK    7  A    between atoms: C_20  and  C_25 
REMARK    8  A    between atoms: C_23  and  C_24 
REMARK    9  A    between atoms: C_28  and  C_31 
ROOT
HETATM    1  O   UNL     1      15.906   2.527  92.288  1.00  0.00    -0.388 OA
HETATM    2  N   UNL     1      13.096   2.894  92.556  1.00  0.00     0.096 N 
HETATM    3  C   UNL     1      13.783   1.750  93.172  1.00  0.00     0.299 C 
HETATM    4  C   UNL     1      13.816   3.324  91.349  1.00  0.00     0.299 C 
HETATM    5  C   UNL     1      15.231   2.122  93.481  1.00  0.00     0.198 C 
HETATM    6  C   UNL     1      15.262   3.658  91.700  1.00  0.00     0.198 C 
ENDROOT
BRANCH   2   7
HETATM    7  C   UNL     1      11.709   2.557  92.242  1.00  0.00     0.311 C 
BRANCH   7   8
HETATM    8  C   UNL     1      10.807   3.742  92.309  1.00  0.00    -0.030 A 
HETATM    9  C   UNL     1      11.020   4.726  93.275  1.00  0.00     0.010 A 
HETATM   10  C   UNL     1      10.175   5.834  93.340  1.00  0.00     0.021 A 
HETATM   11  C   UNL     1       9.120   5.958  92.437  1.00  0.00     0.018 A 
HETATM   12  C   UNL     1       8.906   4.977  91.472  1.00  0.00     0.021 A 
HETATM   13  C   UNL     1       9.750   3.868  91.407  1.00  0.00     0.010 A 
BRANCH  11  14
HETATM   14  C   UNL     1       8.255   7.096  92.503  1.00  0.00    -0.061 C 
HETATM   15  C   UNL     1       7.528   8.052  92.558  1.00  0.00    -0.061 C 
BRANCH  15  16
HETATM   16  C   UNL     1       6.664   9.189  92.624  1.00  0.00     0.018 A 
HETATM   17  C   UNL     1       5.989   9.483  93.810  1.00  0.00     0.022 A 
HETATM   18  C   UNL     1       5.149  10.595  93.875  1.00  0.00     0.018 A 
HETATM   19  C   UNL     1       5.002  11.386  92.755  1.00  0.00     0.032 A 
HETATM   20  C   UNL     1       5.657  11.116  91.572  1.00  0.00     0.018 A 
HETATM   21  C   UNL     1       6.498  10.005  91.505  1.00  0.00     0.022 A 
BRANCH  19  22
HETATM   22  C   UNL     1       4.104  12.568  92.824  1.00  0.00     0.252 C 
HETATM   23  O   UNL     1       3.192  12.581  93.647  1.00  0.00    -0.268 OA
HETATM   24  N   UNL     1       4.393  13.603  91.945  1.00  0.00    -0.342 N 
HETATM   25  H   UNL     1       5.179  13.532  91.310  1.00  0.00     0.163 HD
BRANCH  24  26
HETATM   26  C   UNL     1       3.630  14.825  91.908  1.00  0.00     0.199 C 
BRANCH  26  27
HETATM   27  C   UNL     1       2.291  14.666  91.176  1.00  0.00     0.145 C 
HETATM   28  C   UNL     1       2.432  13.914  89.857  1.00  0.00     0.042 C 
BRANCH  27  29
HETATM   29  O   UNL     1       1.369  13.967  92.012  1.00  0.00    -0.393 OA
HETATM   30  H   UNL     1       0.478  14.313  91.839  1.00  0.00     0.210 HD
ENDBRANCH  27  29
ENDBRANCH  26  27
BRANCH  26  31
HETATM   31  C   UNL     1       3.424  15.289  93.346  1.00  0.00     0.220 C 
HETATM   32  O   UNL     1       2.324  15.600  93.798  1.00  0.00    -0.278 OA
HETATM   33  N   UNL     1       4.605  15.351  94.045  1.00  0.00    -0.271 NA
HETATM   34  H   UNL     1       5.536  15.188  93.680  1.00  0.00     0.127 HD
HETATM   35  H   UNL     1       5.311  16.490  94.464  1.00  0.00     0.127 HD
ENDBRANCH  26  31
ENDBRANCH  24  26
ENDBRANCH  19  22
ENDBRANCH  15  16
ENDBRANCH  11  14
ENDBRANCH   7   8
ENDBRANCH   2   7
TORSDOF 9
ENDMDL
