MODEL 1
REMARK VINA RESULT:      -6.6      0.000      0.000
REMARK  11 active torsions:
REMARK  status: ('A' for Active; 'I' for Inactive)
REMARK    1  A    between atoms: O_2  and  C_18 
REMARK    2  A    between atoms: O_5  and  P_8 
REMARK    3  A    between atoms: N_6  and  C_11 
REMARK    4  A    between atoms: N_7  and  C_15 
REMARK       I    between atoms: N_7  and  C_24 
REMARK    5  A    between atoms: P_8  and  C_23 
REMARK    6  A    between atoms: C_11  and  C_14 
REMARK    7  A    between atoms: C_15  and  C_18 
REMARK    8  A    between atoms: C_15  and  C_23 
REMARK    9  A    between atoms: C_21  and  C_26 
REMARK   10  A    between atoms: C_24  and  C_25 
REMARK   11  A    between atoms: C_29  and  C_32 
ROOT
HETATM    1  O   UNL     1      16.674   4.455  94.123  1.00  0.00     0.000 OA
HETATM    2  N   UNL     1      14.991   2.813  92.519  1.00  0.00     0.000 N 
HETATM    3  C   UNL     1      14.862   4.277  92.519  1.00  0.00     0.000 C 
HETATM    4  C   UNL     1      15.502   2.354  93.818  1.00  0.00     0.000 C 
HETATM    5  C   UNL     1      16.208   4.915  92.853  1.00  0.00     0.000 C 
HETATM    6  C   UNL     1      16.831   3.036  94.122  1.00  0.00     0.000 C 
ENDROOT
BRANCH   2   7
HETATM    7  C   UNL     1      13.709   2.181  92.211  1.00  0.00     0.000 C 
BRANCH   7   8
HETATM    8  C   UNL     1      12.633   3.178  91.944  1.00  0.00     0.000 A 
HETATM    9  C   UNL     1      11.865   3.673  92.998  1.00  0.00     0.000 A 
HETATM   10  C   UNL     1      10.857   4.604  92.748  1.00  0.00     0.000 A 
HETATM   11  C   UNL     1      10.619   5.041  91.445  1.00  0.00     0.000 A 
HETATM   12  C   UNL     1      11.386   4.547  90.392  1.00  0.00     0.000 A 
HETATM   13  C   UNL     1      12.394   3.615  90.641  1.00  0.00     0.000 A 
BRANCH  11  14
HETATM   14  C   UNL     1       9.587   5.997  91.190  1.00  0.00     0.000 C 
HETATM   15  C   UNL     1       8.719   6.802  90.976  1.00  0.00     0.000 C 
BRANCH  15  16
HETATM   16  C   UNL     1       7.687   7.758  90.721  1.00  0.00     0.000 A 
HETATM   17  C   UNL     1       7.631   8.937  91.465  1.00  0.00     0.000 A 
HETATM   18  C   UNL     1       6.626   9.871  91.214  1.00  0.00     0.000 A 
HETATM   19  C   UNL     1       5.702   9.607  90.225  1.00  0.00     0.000 A 
HETATM   20  C   UNL     1       5.736   8.450  89.476  1.00  0.00     0.000 A 
HETATM   21  C   UNL     1       6.740   7.514  89.726  1.00  0.00     0.000 A 
BRANCH  19  22
HETATM   22  C   UNL     1       4.631  10.602  89.960  1.00  0.00     0.000 C 
HETATM   23  O   UNL     1       3.525  10.210  89.596  1.00  0.00     0.000 OA
HETATM   24  N   UNL     1       4.969  11.931  90.174  1.00  0.00     0.000 N 
HETATM   25  HN  UNL     1       5.896  12.178  90.499  1.00  0.00     0.000 HD
BRANCH  24  26
HETATM   26  C   UNL     1       4.033  13.010  89.984  1.00  0.00     0.000 C 
BRANCH  26  27
HETATM   27  C   UNL     1       3.359  13.448  91.290  1.00  0.00     0.000 C 
HETATM   28  C   UNL     1       2.345  12.428  91.795  1.00  0.00     0.000 C 
BRANCH  27  29
HETATM   29  O   UNL     1       4.353  13.651  92.295  1.00  0.00     0.000 OA
HETATM   30  H   UNL     1       4.287  12.925  92.939  1.00  0.00     0.000 HD
ENDBRANCH  27  29
ENDBRANCH  26  27
BRANCH  26  31
HETATM   31  C   UNL     1       4.781  14.167  89.330  1.00  0.00     0.000 C 
HETATM   32  O   UNL     1       4.862  15.284  89.837  1.00  0.00     0.000 OA
BRANCH  31  33
HETATM   33  P   UNL     1       5.309  13.820  88.110  1.00  0.00     0.000 P 
HETATM   34  H   UNL     1       5.378  14.962  87.339  1.00  0.00     0.000 HD
BRANCH  33  35
HETATM   35  O   UNL     1       4.593  12.855  87.387  1.00  0.00     0.000 OA
HETATM   36  H   UNL     1       4.614  12.115  88.016  1.00  0.00     0.000 HD
ENDBRANCH  33  35
ENDBRANCH  31  33
ENDBRANCH  26  31
ENDBRANCH  24  26
ENDBRANCH  19  22
ENDBRANCH  15  16
ENDBRANCH  11  14
ENDBRANCH   7   8
ENDBRANCH   2   7
TORSDOF 11
ENDMDL
MODEL 2
REMARK VINA RESULT:      -6.5      1.885      3.070
REMARK  11 active torsions:
REMARK  status: ('A' for Active; 'I' for Inactive)
REMARK    1  A    between atoms: O_2  and  C_18 
REMARK    2  A    between atoms: O_5  and  P_8 
REMARK    3  A    between atoms: N_6  and  C_11 
REMARK    4  A    between atoms: N_7  and  C_15 
REMARK       I    between atoms: N_7  and  C_24 
REMARK    5  A    between atoms: P_8  and  C_23 
REMARK    6  A    between atoms: C_11  and  C_14 
REMARK    7  A    between atoms: C_15  and  C_18 
REMARK    8  A    between atoms: C_15  and  C_23 
REMARK    9  A    between atoms: C_21  and  C_26 
REMARK   10  A    between atoms: C_24  and  C_25 
REMARK   11  A    between atoms: C_29  and  C_32 
ROOT
HETATM    1  O   UNL     1      16.027   4.059  93.934  1.00  0.00     0.000 OA
HETATM    2  N   UNL     1      14.088   2.655  92.394  1.00  0.00     0.000 N 
HETATM    3  C   UNL     1      14.329   4.092  92.200  1.00  0.00     0.000 C 
HETATM    4  C   UNL     1      14.387   2.277  93.782  1.00  0.00     0.000 C 
HETATM    5  C   UNL     1      15.769   4.430  92.579  1.00  0.00     0.000 C 
HETATM    6  C   UNL     1      15.824   2.658  94.124  1.00  0.00     0.000 C 
ENDROOT
BRANCH   2   7
HETATM    7  C   UNL     1      12.710   2.311  92.047  1.00  0.00     0.000 C 
BRANCH   7   8
HETATM    8  C   UNL     1      11.790   3.480  92.144  1.00  0.00     0.000 A 
HETATM    9  C   UNL     1      11.254   4.042  90.985  1.00  0.00     0.000 A 
HETATM   10  C   UNL     1      10.395   5.137  91.075  1.00  0.00     0.000 A 
HETATM   11  C   UNL     1      10.071   5.668  92.323  1.00  0.00     0.000 A 
HETATM   12  C   UNL     1      10.606   5.108  93.481  1.00  0.00     0.000 A 
HETATM   13  C   UNL     1      11.466   4.013  93.392  1.00  0.00     0.000 A 
BRANCH  11  14
HETATM   14  C   UNL     1       9.189   6.791  92.415  1.00  0.00     0.000 C 
HETATM   15  C   UNL     1       8.446   7.733  92.492  1.00  0.00     0.000 C 
BRANCH  15  16
HETATM   16  C   UNL     1       7.565   8.855  92.585  1.00  0.00     0.000 A 
HETATM   17  C   UNL     1       6.893   9.308  91.449  1.00  0.00     0.000 A 
HETATM   18  C   UNL     1       6.030  10.400  91.540  1.00  0.00     0.000 A 
HETATM   19  C   UNL     1       5.859  11.014  92.764  1.00  0.00     0.000 A 
HETATM   20  C   UNL     1       6.511  10.586  93.900  1.00  0.00     0.000 A 
HETATM   21  C   UNL     1       7.374   9.493  93.810  1.00  0.00     0.000 A 
BRANCH  19  22
HETATM   22  C   UNL     1       4.941  12.179  92.860  1.00  0.00     0.000 C 
HETATM   23  O   UNL     1       4.707  12.669  93.962  1.00  0.00     0.000 OA
HETATM   24  N   UNL     1       4.427  12.649  91.659  1.00  0.00     0.000 N 
HETATM   25  HN  UNL     1       4.685  12.209  90.783  1.00  0.00     0.000 HD
BRANCH  24  26
HETATM   26  C   UNL     1       3.544  13.785  91.585  1.00  0.00     0.000 C 
BRANCH  26  27
HETATM   27  C   UNL     1       3.548  14.451  90.203  1.00  0.00     0.000 C 
HETATM   28  C   UNL     1       4.938  14.919  89.785  1.00  0.00     0.000 C 
BRANCH  27  29
HETATM   29  O   UNL     1       3.056  13.532  89.229  1.00  0.00     0.000 OA
HETATM   30  H   UNL     1       2.598  14.038  88.537  1.00  0.00     0.000 HD
ENDBRANCH  27  29
ENDBRANCH  26  27
BRANCH  26  31
HETATM   31  C   UNL     1       2.145  13.313  91.969  1.00  0.00     0.000 C 
HETATM   32  O   UNL     1       1.647  12.275  91.538  1.00  0.00     0.000 OA
BRANCH  31  33
HETATM   33  P   UNL     1       1.511  14.197  92.808  1.00  0.00     0.000 P 
HETATM   34  H   UNL     1       1.437  15.415  92.161  1.00  0.00     0.000 HD
BRANCH  33  35
HETATM   35  O   UNL     1       2.125  14.407  94.050  1.00  0.00     0.000 OA
HETATM   36  H   UNL     1       2.283  15.366  94.007  1.00  0.00     0.000 HD
ENDBRANCH  33  35
ENDBRANCH  31  33
ENDBRANCH  26  31
ENDBRANCH  24  26
ENDBRANCH  19  22
ENDBRANCH  15  16
ENDBRANCH  11  14
ENDBRANCH   7   8
ENDBRANCH   2   7
TORSDOF 11
ENDMDL
MODEL 3
REMARK VINA RESULT:      -5.9      1.506      1.890
REMARK  11 active torsions:
REMARK  status: ('A' for Active; 'I' for Inactive)
REMARK    1  A    between atoms: O_2  and  C_18 
REMARK    2  A    between atoms: O_5  and  P_8 
REMARK    3  A    between atoms: N_6  and  C_11 
REMARK    4  A    between atoms: N_7  and  C_15 
REMARK       I    between atoms: N_7  and  C_24 
REMARK    5  A    between atoms: P_8  and  C_23 
REMARK    6  A    between atoms: C_11  and  C_14 
REMARK    7  A    between atoms: C_15  and  C_18 
REMARK    8  A    between atoms: C_15  and  C_23 
REMARK    9  A    between atoms: C_21  and  C_26 
REMARK   10  A    between atoms: C_24  and  C_25 
REMARK   11  A    between atoms: C_29  and  C_32 
ROOT
HETATM    1  O   UNL     1      16.470   3.105  93.506  1.00  0.00     0.000 OA
HETATM    2  N   UNL     1      13.716   2.849  92.834  1.00  0.00     0.000 N 
HETATM    3  C   UNL     1      14.532   1.680  93.188  1.00  0.00     0.000 C 
HETATM    4  C   UNL     1      14.561   3.889  92.231  1.00  0.00     0.000 C 
HETATM    5  C   UNL     1      15.663   2.101  94.123  1.00  0.00     0.000 C 
HETATM    6  C   UNL     1      15.691   4.258  93.187  1.00  0.00     0.000 C 
ENDROOT
BRANCH   2   7
HETATM    7  C   UNL     1      12.633   2.470  91.930  1.00  0.00     0.000 C 
BRANCH   7   8
HETATM    8  C   UNL     1      11.553   3.497  91.874  1.00  0.00     0.000 A 
HETATM    9  C   UNL     1      11.315   4.318  92.978  1.00  0.00     0.000 A 
HETATM   10  C   UNL     1      10.304   5.277  92.928  1.00  0.00     0.000 A 
HETATM   11  C   UNL     1       9.533   5.417  91.774  1.00  0.00     0.000 A 
HETATM   12  C   UNL     1       9.770   4.598  90.672  1.00  0.00     0.000 A 
HETATM   13  C   UNL     1      10.780   3.638  90.722  1.00  0.00     0.000 A 
BRANCH  11  14
HETATM   14  C   UNL     1       8.498   6.403  91.723  1.00  0.00     0.000 C 
HETATM   15  C   UNL     1       7.628   7.231  91.679  1.00  0.00     0.000 C 
BRANCH  15  16
HETATM   16  C   UNL     1       6.593   8.216  91.626  1.00  0.00     0.000 A 
HETATM   17  C   UNL     1       6.712   9.392  92.368  1.00  0.00     0.000 A 
HETATM   18  C   UNL     1       5.703  10.354  92.314  1.00  0.00     0.000 A 
HETATM   19  C   UNL     1       4.600  10.119  91.521  1.00  0.00     0.000 A 
HETATM   20  C   UNL     1       4.458   8.965  90.779  1.00  0.00     0.000 A 
HETATM   21  C   UNL     1       5.466   8.003  90.832  1.00  0.00     0.000 A 
BRANCH  19  22
HETATM   22  C   UNL     1       3.525  11.144  91.466  1.00  0.00     0.000 C 
HETATM   23  O   UNL     1       2.370  10.790  91.239  1.00  0.00     0.000 OA
HETATM   24  N   UNL     1       3.919  12.453  91.706  1.00  0.00     0.000 N 
HETATM   25  HN  UNL     1       4.888  12.667  91.911  1.00  0.00     0.000 HD
BRANCH  24  26
HETATM   26  C   UNL     1       2.990  13.554  91.711  1.00  0.00     0.000 C 
BRANCH  26  27
HETATM   27  C   UNL     1       3.258  14.551  92.845  1.00  0.00     0.000 C 
HETATM   28  C   UNL     1       2.079  14.676  93.804  1.00  0.00     0.000 C 
BRANCH  27  29
HETATM   29  O   UNL     1       4.411  14.141  93.579  1.00  0.00     0.000 OA
HETATM   30  H   UNL     1       5.194  14.281  93.020  1.00  0.00     0.000 HD
ENDBRANCH  27  29
ENDBRANCH  26  27
BRANCH  26  31
HETATM   31  C   UNL     1       3.064  14.232  90.347  1.00  0.00     0.000 C 
HETATM   32  O   UNL     1       2.083  14.386  89.621  1.00  0.00     0.000 OA
BRANCH  31  33
HETATM   33  P   UNL     1       4.345  14.606  90.022  1.00  0.00     0.000 P 
HETATM   34  H   UNL     1       4.272  15.770  89.284  1.00  0.00     0.000 HD
BRANCH  33  35
HETATM   35  O   UNL     1       5.083  13.673  89.280  1.00  0.00     0.000 OA
HETATM   36  H   UNL     1       4.782  12.845  89.691  1.00  0.00     0.000 HD
ENDBRANCH  33  35
ENDBRANCH  31  33
ENDBRANCH  26  31
ENDBRANCH  24  26
ENDBRANCH  19  22
ENDBRANCH  15  16
ENDBRANCH  11  14
ENDBRANCH   7   8
ENDBRANCH   2   7
TORSDOF 11
ENDMDL
MODEL 4
REMARK VINA RESULT:      -5.7      3.645     12.232
REMARK  11 active torsions:
REMARK  status: ('A' for Active; 'I' for Inactive)
REMARK    1  A    between atoms: O_2  and  C_18 
REMARK    2  A    between atoms: O_5  and  P_8 
REMARK    3  A    between atoms: N_6  and  C_11 
REMARK    4  A    between atoms: N_7  and  C_15 
REMARK       I    between atoms: N_7  and  C_24 
REMARK    5  A    between atoms: P_8  and  C_23 
REMARK    6  A    between atoms: C_11  and  C_14 
REMARK    7  A    between atoms: C_15  and  C_18 
REMARK    8  A    between atoms: C_15  and  C_23 
REMARK    9  A    between atoms: C_21  and  C_26 
REMARK   10  A    between atoms: C_24  and  C_25 
REMARK   11  A    between atoms: C_29  and  C_32 
ROOT
HETATM    1  O   UNL     1       2.879  14.767  94.010  1.00  0.00     0.000 OA
HETATM    2  N   UNL     1       2.625  14.731  91.175  1.00  0.00     0.000 N 
HETATM    3  C   UNL     1       1.664  14.034  92.042  1.00  0.00     0.000 C 
HETATM    4  C   UNL     1       3.939  14.791  91.828  1.00  0.00     0.000 C 
HETATM    5  C   UNL     1       1.589  14.732  93.397  1.00  0.00     0.000 C 
HETATM    6  C   UNL     1       3.812  15.470  93.188  1.00  0.00     0.000 C 
ENDROOT
BRANCH   2   7
HETATM    7  C   UNL     1       2.720  14.072  89.874  1.00  0.00     0.000 C 
BRANCH   7   8
HETATM    8  C   UNL     1       3.721  12.968  89.868  1.00  0.00     0.000 A 
HETATM    9  C   UNL     1       3.403  11.736  90.441  1.00  0.00     0.000 A 
HETATM   10  C   UNL     1       4.339  10.702  90.438  1.00  0.00     0.000 A 
HETATM   11  C   UNL     1       5.593  10.901  89.861  1.00  0.00     0.000 A 
HETATM   12  C   UNL     1       5.913  12.131  89.289  1.00  0.00     0.000 A 
HETATM   13  C   UNL     1       4.976  13.165  89.292  1.00  0.00     0.000 A 
BRANCH  11  14
HETATM   14  C   UNL     1       6.553   9.840  89.857  1.00  0.00     0.000 C 
HETATM   15  C   UNL     1       7.360   8.948  89.852  1.00  0.00     0.000 C 
BRANCH  15  16
HETATM   16  C   UNL     1       8.319   7.888  89.847  1.00  0.00     0.000 A 
HETATM   17  C   UNL     1       8.502   7.108  90.989  1.00  0.00     0.000 A 
HETATM   18  C   UNL     1       9.436   6.073  90.982  1.00  0.00     0.000 A 
HETATM   19  C   UNL     1      10.165   5.840  89.835  1.00  0.00     0.000 A 
HETATM   20  C   UNL     1      10.004   6.597  88.694  1.00  0.00     0.000 A 
HETATM   21  C   UNL     1       9.070   7.633  88.699  1.00  0.00     0.000 A 
BRANCH  19  22
HETATM   22  C   UNL     1      11.162   4.738  89.830  1.00  0.00     0.000 C 
HETATM   23  O   UNL     1      11.324   4.080  88.804  1.00  0.00     0.000 OA
HETATM   24  N   UNL     1      11.868   4.550  91.010  1.00  0.00     0.000 N 
HETATM   25  HN  UNL     1      11.698   5.149  91.810  1.00  0.00     0.000 HD
BRANCH  24  26
HETATM   26  C   UNL     1      12.884   3.538  91.153  1.00  0.00     0.000 C 
BRANCH  26  27
HETATM   27  C   UNL     1      14.277   4.128  91.403  1.00  0.00     0.000 C 
HETATM   28  C   UNL     1      15.384   3.087  91.275  1.00  0.00     0.000 C 
BRANCH  27  29
HETATM   29  O   UNL     1      14.523   5.182  90.471  1.00  0.00     0.000 OA
HETATM   30  H   UNL     1      15.393   5.567  90.670  1.00  0.00     0.000 HD
ENDBRANCH  27  29
ENDBRANCH  26  27
BRANCH  26  31
HETATM   31  C   UNL     1      12.462   2.613  92.290  1.00  0.00     0.000 C 
HETATM   32  O   UNL     1      12.050   1.469  92.104  1.00  0.00     0.000 OA
BRANCH  31  33
HETATM   33  P   UNL     1      12.563   3.220  93.518  1.00  0.00     0.000 P 
HETATM   34  H   UNL     1      12.424   2.244  94.485  1.00  0.00     0.000 HD
BRANCH  33  35
HETATM   35  O   UNL     1      11.619   4.223  93.782  1.00  0.00     0.000 OA
HETATM   36  H   UNL     1      11.259   4.362  92.890  1.00  0.00     0.000 HD
ENDBRANCH  33  35
ENDBRANCH  31  33
ENDBRANCH  26  31
ENDBRANCH  24  26
ENDBRANCH  19  22
ENDBRANCH  15  16
ENDBRANCH  11  14
ENDBRANCH   7   8
ENDBRANCH   2   7
TORSDOF 11
ENDMDL
MODEL 5
REMARK VINA RESULT:      -4.6      3.168     12.308
REMARK  11 active torsions:
REMARK  status: ('A' for Active; 'I' for Inactive)
REMARK    1  A    between atoms: O_2  and  C_18 
REMARK    2  A    between atoms: O_5  and  P_8 
REMARK    3  A    between atoms: N_6  and  C_11 
REMARK    4  A    between atoms: N_7  and  C_15 
REMARK       I    between atoms: N_7  and  C_24 
REMARK    5  A    between atoms: P_8  and  C_23 
REMARK    6  A    between atoms: C_11  and  C_14 
REMARK    7  A    between atoms: C_15  and  C_18 
REMARK    8  A    between atoms: C_15  and  C_23 
REMARK    9  A    between atoms: C_21  and  C_26 
REMARK   10  A    between atoms: C_24  and  C_25 
REMARK   11  A    between atoms: C_29  and  C_32 
ROOT
HETATM    1  O   UNL     1       5.611  14.477  88.732  1.00  0.00     0.000 OA
HETATM    2  N   UNL     1       3.909  12.843  90.325  1.00  0.00     0.000 N 
HETATM    3  C   UNL     1       4.421  14.129  90.819  1.00  0.00     0.000 C 
HETATM    4  C   UNL     1       4.855  12.260  89.364  1.00  0.00     0.000 C 
HETATM    5  C   UNL     1       4.682  15.067  89.643  1.00  0.00     0.000 C 
HETATM    6  C   UNL     1       5.106  13.241  88.224  1.00  0.00     0.000 C 
ENDROOT
BRANCH   2   7
HETATM    7  C   UNL     1       3.662  11.924  91.435  1.00  0.00     0.000 C 
BRANCH   7   8
HETATM    8  C   UNL     1       4.714  10.874  91.547  1.00  0.00     0.000 A 
HETATM    9  C   UNL     1       4.542   9.645  90.909  1.00  0.00     0.000 A 
HETATM   10  C   UNL     1       5.524   8.661  91.015  1.00  0.00     0.000 A 
HETATM   11  C   UNL     1       6.679   8.907  91.758  1.00  0.00     0.000 A 
HETATM   12  C   UNL     1       6.851  10.133  92.395  1.00  0.00     0.000 A 
HETATM   13  C   UNL     1       5.869  11.118  92.290  1.00  0.00     0.000 A 
BRANCH  11  14
HETATM   14  C   UNL     1       7.688   7.898  91.865  1.00  0.00     0.000 C 
HETATM   15  C   UNL     1       8.535   7.050  91.954  1.00  0.00     0.000 C 
BRANCH  15  16
HETATM   16  C   UNL     1       9.544   6.042  92.061  1.00  0.00     0.000 A 
HETATM   17  C   UNL     1       9.818   5.213  90.973  1.00  0.00     0.000 A 
HETATM   18  C   UNL     1      10.804   4.232  91.076  1.00  0.00     0.000 A 
HETATM   19  C   UNL     1      11.494   4.102  92.263  1.00  0.00     0.000 A 
HETATM   20  C   UNL     1      11.241   4.909  93.353  1.00  0.00     0.000 A 
HETATM   21  C   UNL     1      10.256   5.891  93.251  1.00  0.00     0.000 A 
BRANCH  19  22
HETATM   22  C   UNL     1      12.543   3.055  92.374  1.00  0.00     0.000 C 
HETATM   23  O   UNL     1      12.251   1.886  92.133  1.00  0.00     0.000 OA
HETATM   24  N   UNL     1      13.809   3.499  92.727  1.00  0.00     0.000 N 
HETATM   25  HN  UNL     1      13.982   4.485  92.886  1.00  0.00     0.000 HD
BRANCH  24  26
HETATM   26  C   UNL     1      14.936   2.609  92.850  1.00  0.00     0.000 C 
BRANCH  26  27
HETATM   27  C   UNL     1      15.525   2.206  91.493  1.00  0.00     0.000 C 
HETATM   28  C   UNL     1      15.041   3.099  90.357  1.00  0.00     0.000 C 
BRANCH  27  29
HETATM   29  O   UNL     1      16.950   2.266  91.554  1.00  0.00     0.000 OA
HETATM   30  H   UNL     1      17.200   2.755  92.356  1.00  0.00     0.000 HD
ENDBRANCH  27  29
ENDBRANCH  26  27
BRANCH  26  31
HETATM   31  C   UNL     1      15.979   3.297  93.725  1.00  0.00     0.000 C 
HETATM   32  O   UNL     1      16.997   2.733  94.122  1.00  0.00     0.000 OA
BRANCH  31  33
HETATM   33  P   UNL     1      15.625   4.587  94.038  1.00  0.00     0.000 P 
HETATM   34  H   UNL     1      14.260   4.704  93.869  1.00  0.00     0.000 HD
BRANCH  33  35
HETATM   35  O   UNL     1      16.240   5.591  93.276  1.00  0.00     0.000 OA
HETATM   36  H   UNL     1      17.135   5.574  93.656  1.00  0.00     0.000 HD
ENDBRANCH  33  35
ENDBRANCH  31  33
ENDBRANCH  26  31
ENDBRANCH  24  26
ENDBRANCH  19  22
ENDBRANCH  15  16
ENDBRANCH  11  14
ENDBRANCH   7   8
ENDBRANCH   2   7
TORSDOF 11
ENDMDL
MODEL 6
REMARK VINA RESULT:      -4.2      3.702     12.662
REMARK  11 active torsions:
REMARK  status: ('A' for Active; 'I' for Inactive)
REMARK    1  A    between atoms: O_2  and  C_18 
REMARK    2  A    between atoms: O_5  and  P_8 
REMARK    3  A    between atoms: N_6  and  C_11 
REMARK    4  A    between atoms: N_7  and  C_15 
REMARK       I    between atoms: N_7  and  C_24 
REMARK    5  A    between atoms: P_8  and  C_23 
REMARK    6  A    between atoms: C_11  and  C_14 
REMARK    7  A    between atoms: C_15  and  C_18 
REMARK    8  A    between atoms: C_15  and  C_23 
REMARK    9  A    between atoms: C_21  and  C_26 
REMARK   10  A    between atoms: C_24  and  C_25 
REMARK   11  A    between atoms: C_29  and  C_32 
ROOT
HETATM    1  O   UNL     1       2.135  15.030  92.644  1.00  0.00     0.000 OA
HETATM    2  N   UNL     1       3.142  12.901  91.047  1.00  0.00     0.000 N 
HETATM    3  C   UNL     1       4.006  13.633  91.984  1.00  0.00     0.000 C 
HETATM    4  C   UNL     1       2.062  13.775  90.570  1.00  0.00     0.000 C 
HETATM    5  C   UNL     1       3.169  14.178  93.139  1.00  0.00     0.000 C 
HETATM    6  C   UNL     1       1.273  14.318  91.756  1.00  0.00     0.000 C 
ENDROOT
BRANCH   2   7
HETATM    7  C   UNL     1       3.922  12.378  89.926  1.00  0.00     0.000 C 
BRANCH   7   8
HETATM    8  C   UNL     1       4.918  11.355  90.355  1.00  0.00     0.000 A 
HETATM    9  C   UNL     1       6.249  11.467  89.952  1.00  0.00     0.000 A 
HETATM   10  C   UNL     1       7.181  10.509  90.351  1.00  0.00     0.000 A 
HETATM   11  C   UNL     1       6.782   9.441  91.154  1.00  0.00     0.000 A 
HETATM   12  C   UNL     1       5.453   9.328  91.557  1.00  0.00     0.000 A 
HETATM   13  C   UNL     1       4.520  10.286  91.158  1.00  0.00     0.000 A 
BRANCH  11  14
HETATM   14  C   UNL     1       7.739   8.460  91.565  1.00  0.00     0.000 C 
HETATM   15  C   UNL     1       8.542   7.635  91.910  1.00  0.00     0.000 C 
BRANCH  15  16
HETATM   16  C   UNL     1       9.498   6.654  92.320  1.00  0.00     0.000 A 
HETATM   17  C   UNL     1      10.096   5.825  91.370  1.00  0.00     0.000 A 
HETATM   18  C   UNL     1      11.031   4.870  91.770  1.00  0.00     0.000 A 
HETATM   19  C   UNL     1      11.348   4.766  93.108  1.00  0.00     0.000 A 
HETATM   20  C   UNL     1      10.771   5.573  94.066  1.00  0.00     0.000 A 
HETATM   21  C   UNL     1       9.835   6.529  93.667  1.00  0.00     0.000 A 
BRANCH  19  22
HETATM   22  C   UNL     1      12.342   3.747  93.533  1.00  0.00     0.000 C 
HETATM   23  O   UNL     1      11.965   2.602  93.767  1.00  0.00     0.000 OA
HETATM   24  N   UNL     1      13.659   4.178  93.611  1.00  0.00     0.000 N 
HETATM   25  HN  UNL     1      13.900   5.135  93.378  1.00  0.00     0.000 HD
BRANCH  24  26
HETATM   26  C   UNL     1      14.741   3.303  93.985  1.00  0.00     0.000 C 
BRANCH  26  27
HETATM   27  C   UNL     1      14.930   2.141  93.002  1.00  0.00     0.000 C 
HETATM   28  C   UNL     1      14.656   0.784  93.643  1.00  0.00     0.000 C 
BRANCH  27  29
HETATM   29  O   UNL     1      14.057   2.311  91.887  1.00  0.00     0.000 OA
HETATM   30  H   UNL     1      13.141   2.284  92.210  1.00  0.00     0.000 HD
ENDBRANCH  27  29
ENDBRANCH  26  27
BRANCH  26  31
HETATM   31  C   UNL     1      16.006   4.148  94.095  1.00  0.00     0.000 C 
HETATM   32  O   UNL     1      15.991   5.377  94.119  1.00  0.00     0.000 OA
BRANCH  31  33
HETATM   33  P   UNL     1      17.143   3.377  94.124  1.00  0.00     0.000 P 
HETATM   34  H   UNL     1      18.157   4.140  94.667  1.00  0.00     0.000 HD
BRANCH  33  35
HETATM   35  O   UNL     1      17.585   2.895  92.884  1.00  0.00     0.000 OA
HETATM   36  H   UNL     1      17.575   1.938  93.055  1.00  0.00     0.000 HD
ENDBRANCH  33  35
ENDBRANCH  31  33
ENDBRANCH  26  31
ENDBRANCH  24  26
ENDBRANCH  19  22
ENDBRANCH  15  16
ENDBRANCH  11  14
ENDBRANCH   7   8
ENDBRANCH   2   7
TORSDOF 11
ENDMDL
MODEL 7
REMARK VINA RESULT:      -4.1      1.879      2.613
REMARK  11 active torsions:
REMARK  status: ('A' for Active; 'I' for Inactive)
REMARK    1  A    between atoms: O_2  and  C_18 
REMARK    2  A    between atoms: O_5  and  P_8 
REMARK    3  A    between atoms: N_6  and  C_11 
REMARK    4  A    between atoms: N_7  and  C_15 
REMARK       I    between atoms: N_7  and  C_24 
REMARK    5  A    between atoms: P_8  and  C_23 
REMARK    6  A    between atoms: C_11  and  C_14 
REMARK    7  A    between atoms: C_15  and  C_18 
REMARK    8  A    between atoms: C_15  and  C_23 
REMARK    9  A    between atoms: C_21  and  C_26 
REMARK   10  A    between atoms: C_24  and  C_25 
REMARK   11  A    between atoms: C_29  and  C_32 
ROOT
HETATM    1  O   UNL     1      15.886   2.672  91.284  1.00  0.00     0.000 OA
HETATM    2  N   UNL     1      13.640   3.120  92.975  1.00  0.00     0.000 N 
HETATM    3  C   UNL     1      14.688   2.152  93.329  1.00  0.00     0.000 C 
HETATM    4  C   UNL     1      13.538   3.238  91.513  1.00  0.00     0.000 C 
HETATM    5  C   UNL     1      16.015   2.574  92.703  1.00  0.00     0.000 C 
HETATM    6  C   UNL     1      14.891   3.633  90.930  1.00  0.00     0.000 C 
ENDROOT
BRANCH   2   7
HETATM    7  C   UNL     1      12.357   2.729  93.556  1.00  0.00     0.000 C 
BRANCH   7   8
HETATM    8  C   UNL     1      11.295   3.750  93.325  1.00  0.00     0.000 A 
HETATM    9  C   UNL     1      10.358   3.562  92.308  1.00  0.00     0.000 A 
HETATM   10  C   UNL     1       9.365   4.517  92.089  1.00  0.00     0.000 A 
HETATM   11  C   UNL     1       9.309   5.658  92.889  1.00  0.00     0.000 A 
HETATM   12  C   UNL     1      10.243   5.846  93.905  1.00  0.00     0.000 A 
HETATM   13  C   UNL     1      11.237   4.892  94.123  1.00  0.00     0.000 A 
BRANCH  11  14
HETATM   14  C   UNL     1       8.289   6.636  92.666  1.00  0.00     0.000 C 
HETATM   15  C   UNL     1       7.431   7.458  92.479  1.00  0.00     0.000 C 
BRANCH  15  16
HETATM   16  C   UNL     1       6.412   8.436  92.257  1.00  0.00     0.000 A 
HETATM   17  C   UNL     1       5.069   8.060  92.286  1.00  0.00     0.000 A 
HETATM   18  C   UNL     1       4.074   9.014  92.072  1.00  0.00     0.000 A 
HETATM   19  C   UNL     1       4.444  10.321  91.835  1.00  0.00     0.000 A 
HETATM   20  C   UNL     1       5.765  10.718  91.801  1.00  0.00     0.000 A 
HETATM   21  C   UNL     1       6.760   9.764  92.014  1.00  0.00     0.000 A 
BRANCH  19  22
HETATM   22  C   UNL     1       3.385  11.337  91.605  1.00  0.00     0.000 C 
HETATM   23  O   UNL     1       2.288  10.976  91.186  1.00  0.00     0.000 OA
HETATM   24  N   UNL     1       3.721  12.648  91.914  1.00  0.00     0.000 N 
HETATM   25  HN  UNL     1       4.640  12.869  92.281  1.00  0.00     0.000 HD
BRANCH  24  26
HETATM   26  C   UNL     1       2.795  13.742  91.769  1.00  0.00     0.000 C 
BRANCH  26  27
HETATM   27  C   UNL     1       3.088  14.900  92.731  1.00  0.00     0.000 C 
HETATM   28  C   UNL     1       1.952  15.141  93.718  1.00  0.00     0.000 C 
BRANCH  27  29
HETATM   29  O   UNL     1       4.284  14.624  93.459  1.00  0.00     0.000 OA
HETATM   30  H   UNL     1       5.039  14.730  92.856  1.00  0.00     0.000 HD
ENDBRANCH  27  29
ENDBRANCH  26  27
BRANCH  26  31
HETATM   31  C   UNL     1       2.842  14.202  90.316  1.00  0.00     0.000 C 
HETATM   32  O   UNL     1       1.837  14.511  89.678  1.00  0.00     0.000 OA
BRANCH  31  33
HETATM   33  P   UNL     1       4.118  14.190  89.809  1.00  0.00     0.000 P 
HETATM   34  H   UNL     1       4.967  13.758  90.808  1.00  0.00     0.000 HD
BRANCH  33  35
HETATM   35  O   UNL     1       4.599  15.421  89.339  1.00  0.00     0.000 OA
HETATM   36  H   UNL     1       5.475  15.152  89.013  1.00  0.00     0.000 HD
ENDBRANCH  33  35
ENDBRANCH  31  33
ENDBRANCH  26  31
ENDBRANCH  24  26
ENDBRANCH  19  22
ENDBRANCH  15  16
ENDBRANCH  11  14
ENDBRANCH   7   8
ENDBRANCH   2   7
TORSDOF 11
ENDMDL
