MODEL 1
REMARK VINA RESULT:      -5.9      0.000      0.000
REMARK  12 active torsions:
REMARK  status: ('A' for Active; 'I' for Inactive)
REMARK    1  A    between atoms: O_2  and  C_16 
REMARK    2  A    between atoms: N_5  and  C_9 
REMARK    3  A    between atoms: N_6  and  C_13 
REMARK       I    between atoms: N_6  and  C_22 
REMARK    4  A    between atoms: C_9  and  C_12 
REMARK    5  A    between atoms: C_13  and  C_16 
REMARK    6  A    between atoms: C_13  and  C_21 
REMARK    7  A    between atoms: C_19  and  C_24 
REMARK    8  A    between atoms: C_21  and  C_33 
REMARK    9  A    between atoms: C_22  and  C_23 
REMARK   10  A    between atoms: C_27  and  C_30 
REMARK   11  A    between atoms: C_33  and  C_34 
REMARK   12  A    between atoms: C_34  and  C_35 
ROOT
HETATM    1  O   UNL     1      16.517   4.345  94.124  1.00  0.00    -0.350 OA
HETATM    2  N   UNL     1      14.743   2.648  92.683  1.00  0.00     0.147 N 
HETATM    3  C   UNL     1      14.580   4.108  92.681  1.00  0.00     0.283 C 
HETATM    4  C   UNL     1      15.374   2.213  93.937  1.00  0.00     0.283 C 
HETATM    5  C   UNL     1      15.934   4.780  92.894  1.00  0.00     0.178 C 
HETATM    6  C   UNL     1      16.708   2.930  94.122  1.00  0.00     0.178 C 
ENDROOT
BRANCH   2   7
HETATM    7  C   UNL     1      13.456   1.982  92.491  1.00  0.00     0.277 C 
BRANCH   7   8
HETATM    8  C   UNL     1      12.316   2.943  92.479  1.00  0.00     0.011 A 
HETATM    9  C   UNL     1      11.533   3.080  91.332  1.00  0.00    -0.002 A 
HETATM   10  C   UNL     1      10.467   3.981  91.320  1.00  0.00     0.008 A 
HETATM   11  C   UNL     1      10.185   4.741  92.454  1.00  0.00     0.042 A 
HETATM   12  C   UNL     1      10.966   4.605  93.599  1.00  0.00     0.008 A 
HETATM   13  C   UNL     1      12.032   3.705  93.612  1.00  0.00    -0.002 A 
BRANCH  11  14
HETATM   14  C   UNL     1       9.091   5.663  92.441  1.00  0.00    -0.059 C 
HETATM   15  C   UNL     1       8.171   6.438  92.430  1.00  0.00    -0.059 C 
BRANCH  15  16
HETATM   16  C   UNL     1       7.077   7.358  92.417  1.00  0.00     0.042 A 
HETATM   17  C   UNL     1       6.053   7.209  91.481  1.00  0.00     0.008 A 
HETATM   18  C   UNL     1       4.985   8.106  91.470  1.00  0.00     0.005 A 
HETATM   19  C   UNL     1       4.964   9.129  92.394  1.00  0.00     0.056 A 
HETATM   20  C   UNL     1       5.964   9.298  93.329  1.00  0.00     0.005 A 
HETATM   21  C   UNL     1       7.033   8.402  93.341  1.00  0.00     0.008 A 
BRANCH  19  22
HETATM   22  C   UNL     1       3.826  10.085  92.381  1.00  0.00     0.254 C 
HETATM   23  O   UNL     1       2.762   9.759  92.902  1.00  0.00    -0.268 OA
HETATM   24  N   UNL     1       4.072  11.315  91.786  1.00  0.00    -0.335 N 
HETATM   25  HN  UNL     1       4.985  11.524  91.399  1.00  0.00     0.164 HD
BRANCH  24  26
HETATM   26  C   UNL     1       3.078  12.355  91.716  1.00  0.00     0.166 C 
BRANCH  26  27
HETATM   27  C   UNL     1       3.006  13.194  92.999  1.00  0.00     0.138 C 
HETATM   28  C   UNL     1       4.361  13.767  93.398  1.00  0.00     0.034 C 
BRANCH  27  29
HETATM   29  O   UNL     1       2.085  14.269  92.815  1.00  0.00    -0.383 OA
HETATM   30  H   UNL     1       2.549  14.995  92.366  1.00  0.00     0.210 HD
ENDBRANCH  27  29
ENDBRANCH  26  27
BRANCH  26  31
HETATM   31  C   UNL     1       3.396  13.223  90.503  1.00  0.00     0.181 C 
HETATM   32  O   UNL     1       3.438  14.451  90.551  1.00  0.00    -0.294 OA
BRANCH  31  33
HETATM   33  C   UNL     1       4.762  12.752  89.767  1.00  0.00     0.138 C 
BRANCH  33  34
HETATM   34  C   UNL     1       4.277  12.404  88.487  1.00  0.00     0.208 C 
HETATM   35  O   UNL     1       4.734  13.029  87.557  1.00  0.00    -0.289 OA
BRANCH  34  36
HETATM   36  C   UNL     1       3.593  11.296  88.068  1.00  0.00     0.194 C 
HETATM   37  O   UNL     1       2.972  10.283  88.808  1.00  0.00    -0.185 OA
ENDBRANCH  34  36
ENDBRANCH  33  34
ENDBRANCH  31  33
ENDBRANCH  26  31
ENDBRANCH  24  26
ENDBRANCH  19  22
ENDBRANCH  15  16
ENDBRANCH  11  14
ENDBRANCH   7   8
ENDBRANCH   2   7
TORSDOF 12
ENDMDL
MODEL 2
REMARK VINA RESULT:      -5.8      1.299      1.458
REMARK  12 active torsions:
REMARK  status: ('A' for Active; 'I' for Inactive)
REMARK    1  A    between atoms: O_2  and  C_16 
REMARK    2  A    between atoms: N_5  and  C_9 
REMARK    3  A    between atoms: N_6  and  C_13 
REMARK       I    between atoms: N_6  and  C_22 
REMARK    4  A    between atoms: C_9  and  C_12 
REMARK    5  A    between atoms: C_13  and  C_16 
REMARK    6  A    between atoms: C_13  and  C_21 
REMARK    7  A    between atoms: C_19  and  C_24 
REMARK    8  A    between atoms: C_21  and  C_33 
REMARK    9  A    between atoms: C_22  and  C_23 
REMARK   10  A    between atoms: C_27  and  C_30 
REMARK   11  A    between atoms: C_33  and  C_34 
REMARK   12  A    between atoms: C_34  and  C_35 
ROOT
HETATM    1  O   UNL     1      16.104   3.895  94.124  1.00  0.00    -0.350 OA
HETATM    2  N   UNL     1      14.203   2.489  92.540  1.00  0.00     0.147 N 
HETATM    3  C   UNL     1      14.266   3.957  92.541  1.00  0.00     0.283 C 
HETATM    4  C   UNL     1      14.665   1.965  93.832  1.00  0.00     0.283 C 
HETATM    5  C   UNL     1      15.688   4.414  92.859  1.00  0.00     0.178 C 
HETATM    6  C   UNL     1      16.076   2.468  94.121  1.00  0.00     0.178 C 
ENDROOT
BRANCH   2   7
HETATM    7  C   UNL     1      12.847   2.029  92.247  1.00  0.00     0.277 C 
BRANCH   7   8
HETATM    8  C   UNL     1      11.841   3.124  92.353  1.00  0.00     0.011 A 
HETATM    9  C   UNL     1      10.979   3.385  91.287  1.00  0.00    -0.002 A 
HETATM   10  C   UNL     1      10.039   4.410  91.385  1.00  0.00     0.008 A 
HETATM   11  C   UNL     1       9.959   5.173  92.549  1.00  0.00     0.042 A 
HETATM   12  C   UNL     1      10.818   4.914  93.615  1.00  0.00     0.008 A 
HETATM   13  C   UNL     1      11.759   3.889  93.517  1.00  0.00    -0.002 A 
BRANCH  11  14
HETATM   14  C   UNL     1       8.993   6.223  92.650  1.00  0.00    -0.059 C 
HETATM   15  C   UNL     1       8.180   7.106  92.735  1.00  0.00    -0.059 C 
BRANCH  15  16
HETATM   16  C   UNL     1       7.214   8.155  92.836  1.00  0.00     0.042 A 
HETATM   17  C   UNL     1       5.855   7.847  92.888  1.00  0.00     0.008 A 
HETATM   18  C   UNL     1       4.913   8.871  92.990  1.00  0.00     0.005 A 
HETATM   19  C   UNL     1       5.351  10.178  93.038  1.00  0.00     0.056 A 
HETATM   20  C   UNL     1       6.689  10.508  92.989  1.00  0.00     0.005 A 
HETATM   21  C   UNL     1       7.632   9.485  92.887  1.00  0.00     0.008 A 
BRANCH  19  22
HETATM   22  C   UNL     1       4.347  11.268  93.145  1.00  0.00     0.254 C 
HETATM   23  O   UNL     1       3.559  11.268  94.088  1.00  0.00    -0.268 OA
HETATM   24  N   UNL     1       4.397  12.240  92.155  1.00  0.00    -0.335 N 
HETATM   25  HN  UNL     1       5.093  12.187  91.420  1.00  0.00     0.164 HD
BRANCH  24  26
HETATM   26  C   UNL     1       3.507  13.372  92.134  1.00  0.00     0.166 C 
BRANCH  26  27
HETATM   27  C   UNL     1       3.994  14.527  93.018  1.00  0.00     0.138 C 
HETATM   28  C   UNL     1       2.845  15.297  93.660  1.00  0.00     0.034 C 
BRANCH  27  29
HETATM   29  O   UNL     1       4.842  14.016  94.047  1.00  0.00    -0.383 OA
HETATM   30  H   UNL     1       5.663  13.698  93.635  1.00  0.00     0.210 HD
ENDBRANCH  27  29
ENDBRANCH  26  27
BRANCH  26  31
HETATM   31  C   UNL     1       3.348  13.813  90.683  1.00  0.00     0.181 C 
HETATM   32  O   UNL     1       2.308  14.298  90.240  1.00  0.00    -0.294 OA
BRANCH  31  33
HETATM   33  C   UNL     1       4.543  14.807  90.221  1.00  0.00     0.138 C 
BRANCH  33  34
HETATM   34  C   UNL     1       5.013  14.149  89.063  1.00  0.00     0.208 C 
HETATM   35  O   UNL     1       4.965  14.784  88.034  1.00  0.00    -0.289 OA
BRANCH  34  36
HETATM   36  C   UNL     1       5.780  13.024  88.931  1.00  0.00     0.194 C 
HETATM   37  O   UNL     1       5.653  11.767  89.532  1.00  0.00    -0.185 OA
ENDBRANCH  34  36
ENDBRANCH  33  34
ENDBRANCH  31  33
ENDBRANCH  26  31
ENDBRANCH  24  26
ENDBRANCH  19  22
ENDBRANCH  15  16
ENDBRANCH  11  14
ENDBRANCH   7   8
ENDBRANCH   2   7
TORSDOF 12
ENDMDL
MODEL 3
REMARK VINA RESULT:      -5.8      1.377      1.935
REMARK  12 active torsions:
REMARK  status: ('A' for Active; 'I' for Inactive)
REMARK    1  A    between atoms: O_2  and  C_16 
REMARK    2  A    between atoms: N_5  and  C_9 
REMARK    3  A    between atoms: N_6  and  C_13 
REMARK       I    between atoms: N_6  and  C_22 
REMARK    4  A    between atoms: C_9  and  C_12 
REMARK    5  A    between atoms: C_13  and  C_16 
REMARK    6  A    between atoms: C_13  and  C_21 
REMARK    7  A    between atoms: C_19  and  C_24 
REMARK    8  A    between atoms: C_21  and  C_33 
REMARK    9  A    between atoms: C_22  and  C_23 
REMARK   10  A    between atoms: C_27  and  C_30 
REMARK   11  A    between atoms: C_33  and  C_34 
REMARK   12  A    between atoms: C_34  and  C_35 
ROOT
HETATM    1  O   UNL     1      16.607   3.675  94.124  1.00  0.00    -0.350 OA
HETATM    2  N   UNL     1      14.397   3.135  92.413  1.00  0.00     0.147 N 
HETATM    3  C   UNL     1      14.250   3.958  93.622  1.00  0.00     0.283 C 
HETATM    4  C   UNL     1      15.484   2.163  92.595  1.00  0.00     0.283 C 
HETATM    5  C   UNL     1      15.574   4.645  93.944  1.00  0.00     0.178 C 
HETATM    6  C   UNL     1      16.778   2.891  92.942  1.00  0.00     0.178 C 
ENDROOT
BRANCH   2   7
HETATM    7  C   UNL     1      13.142   2.458  92.092  1.00  0.00     0.277 C 
BRANCH   7   8
HETATM    8  C   UNL     1      12.017   3.415  91.888  1.00  0.00     0.011 A 
HETATM    9  C   UNL     1      11.277   3.862  92.983  1.00  0.00    -0.002 A 
HETATM   10  C   UNL     1      10.222   4.755  92.794  1.00  0.00     0.008 A 
HETATM   11  C   UNL     1       9.910   5.202  91.510  1.00  0.00     0.042 A 
HETATM   12  C   UNL     1      10.649   4.756  90.416  1.00  0.00     0.008 A 
HETATM   13  C   UNL     1      11.703   3.862  90.605  1.00  0.00    -0.002 A 
BRANCH  11  14
HETATM   14  C   UNL     1       8.830   6.120  91.316  1.00  0.00    -0.059 C 
HETATM   15  C   UNL     1       7.921   6.890  91.154  1.00  0.00    -0.059 C 
BRANCH  15  16
HETATM   16  C   UNL     1       6.842   7.808  90.961  1.00  0.00     0.042 A 
HETATM   17  C   UNL     1       6.229   7.909  89.712  1.00  0.00     0.008 A 
HETATM   18  C   UNL     1       5.174   8.803  89.525  1.00  0.00     0.005 A 
HETATM   19  C   UNL     1       4.756   9.573  90.590  1.00  0.00     0.056 A 
HETATM   20  C   UNL     1       5.345   9.491  91.834  1.00  0.00     0.005 A 
HETATM   21  C   UNL     1       6.400   8.598  92.022  1.00  0.00     0.008 A 
BRANCH  19  22
HETATM   22  C   UNL     1       3.633  10.525  90.389  1.00  0.00     0.254 C 
HETATM   23  O   UNL     1       2.922  10.414  89.394  1.00  0.00    -0.268 OA
HETATM   24  N   UNL     1       3.458  11.477  91.384  1.00  0.00    -0.335 N 
HETATM   25  HN  UNL     1       4.070  11.493  92.192  1.00  0.00     0.164 HD
BRANCH  24  26
HETATM   26  C   UNL     1       2.400  12.454  91.346  1.00  0.00     0.166 C 
BRANCH  26  27
HETATM   27  C   UNL     1       1.708  12.633  92.703  1.00  0.00     0.138 C 
HETATM   28  C   UNL     1       1.361  11.302  93.362  1.00  0.00     0.034 C 
BRANCH  27  29
HETATM   29  O   UNL     1       2.556  13.376  93.577  1.00  0.00    -0.383 OA
HETATM   30  H   UNL     1       3.460  13.350  93.220  1.00  0.00     0.210 HD
ENDBRANCH  27  29
ENDBRANCH  26  27
BRANCH  26  31
HETATM   31  C   UNL     1       2.996  13.767  90.850  1.00  0.00     0.181 C 
HETATM   32  O   UNL     1       2.707  14.860  91.335  1.00  0.00    -0.294 OA
BRANCH  31  33
HETATM   33  C   UNL     1       4.616  13.712  90.797  1.00  0.00     0.138 C 
BRANCH  33  34
HETATM   34  C   UNL     1       4.870  14.326  89.551  1.00  0.00     0.208 C 
HETATM   35  O   UNL     1       5.120  15.509  89.581  1.00  0.00    -0.289 OA
BRANCH  34  36
HETATM   36  C   UNL     1       5.166  13.775  88.334  1.00  0.00     0.194 C 
HETATM   37  O   UNL     1       4.670  12.620  87.719  1.00  0.00    -0.185 OA
ENDBRANCH  34  36
ENDBRANCH  33  34
ENDBRANCH  31  33
ENDBRANCH  26  31
ENDBRANCH  24  26
ENDBRANCH  19  22
ENDBRANCH  15  16
ENDBRANCH  11  14
ENDBRANCH   7   8
ENDBRANCH   2   7
TORSDOF 12
ENDMDL
MODEL 4
REMARK VINA RESULT:      -4.9      1.313      1.854
REMARK  12 active torsions:
REMARK  status: ('A' for Active; 'I' for Inactive)
REMARK    1  A    between atoms: O_2  and  C_16 
REMARK    2  A    between atoms: N_5  and  C_9 
REMARK    3  A    between atoms: N_6  and  C_13 
REMARK       I    between atoms: N_6  and  C_22 
REMARK    4  A    between atoms: C_9  and  C_12 
REMARK    5  A    between atoms: C_13  and  C_16 
REMARK    6  A    between atoms: C_13  and  C_21 
REMARK    7  A    between atoms: C_19  and  C_24 
REMARK    8  A    between atoms: C_21  and  C_33 
REMARK    9  A    between atoms: C_22  and  C_23 
REMARK   10  A    between atoms: C_27  and  C_30 
REMARK   11  A    between atoms: C_33  and  C_34 
REMARK   12  A    between atoms: C_34  and  C_35 
ROOT
HETATM    1  O   UNL     1      15.966   4.213  93.747  1.00  0.00    -0.350 OA
HETATM    2  N   UNL     1      14.043   2.618  92.382  1.00  0.00     0.147 N 
HETATM    3  C   UNL     1      14.290   4.016  92.002  1.00  0.00     0.283 C 
HETATM    4  C   UNL     1      14.324   2.428  93.812  1.00  0.00     0.283 C 
HETATM    5  C   UNL     1      15.726   4.400  92.351  1.00  0.00     0.178 C 
HETATM    6  C   UNL     1      15.757   2.850  94.118  1.00  0.00     0.178 C 
ENDROOT
BRANCH   2   7
HETATM    7  C   UNL     1      12.669   2.232  92.067  1.00  0.00     0.277 C 
BRANCH   7   8
HETATM    8  C   UNL     1      11.714   3.369  92.197  1.00  0.00     0.011 A 
HETATM    9  C   UNL     1      10.931   3.750  91.106  1.00  0.00    -0.002 A 
HETATM   10  C   UNL     1      10.040   4.816  91.226  1.00  0.00     0.008 A 
HETATM   11  C   UNL     1       9.930   5.499  92.437  1.00  0.00     0.042 A 
HETATM   12  C   UNL     1      10.711   5.119  93.527  1.00  0.00     0.008 A 
HETATM   13  C   UNL     1      11.603   4.054  93.407  1.00  0.00    -0.002 A 
BRANCH  11  14
HETATM   14  C   UNL     1       9.013   6.591  92.560  1.00  0.00    -0.059 C 
HETATM   15  C   UNL     1       8.243   7.508  92.665  1.00  0.00    -0.059 C 
BRANCH  15  16
HETATM   16  C   UNL     1       7.328   8.600  92.789  1.00  0.00     0.042 A 
HETATM   17  C   UNL     1       7.681   9.722  93.538  1.00  0.00     0.008 A 
HETATM   18  C   UNL     1       6.789  10.788  93.657  1.00  0.00     0.005 A 
HETATM   19  C   UNL     1       5.566  10.708  93.023  1.00  0.00     0.056 A 
HETATM   20  C   UNL     1       5.194   9.609  92.277  1.00  0.00     0.005 A 
HETATM   21  C   UNL     1       6.085   8.543  92.158  1.00  0.00     0.008 A 
BRANCH  19  22
HETATM   22  C   UNL     1       4.616  11.843  93.151  1.00  0.00     0.254 C 
HETATM   23  O   UNL     1       4.700  12.589  94.124  1.00  0.00    -0.268 OA
HETATM   24  N   UNL     1       3.698  11.987  92.120  1.00  0.00    -0.335 N 
HETATM   25  HN  UNL     1       3.705  11.347  91.335  1.00  0.00     0.164 HD
BRANCH  24  26
HETATM   26  C   UNL     1       2.728  13.052  92.088  1.00  0.00     0.166 C 
BRANCH  26  27
HETATM   27  C   UNL     1       2.453  13.646  93.475  1.00  0.00     0.138 C 
HETATM   28  C   UNL     1       2.021  15.107  93.410  1.00  0.00     0.034 C 
BRANCH  27  29
HETATM   29  O   UNL     1       1.431  12.889  94.124  1.00  0.00    -0.383 OA
HETATM   30  H   UNL     1       0.608  13.406  94.100  1.00  0.00     0.210 HD
ENDBRANCH  27  29
ENDBRANCH  26  27
BRANCH  26  31
HETATM   31  C   UNL     1       3.237  14.116  91.121  1.00  0.00     0.181 C 
HETATM   32  O   UNL     1       4.360  14.611  91.198  1.00  0.00    -0.294 OA
BRANCH  31  33
HETATM   33  C   UNL     1       3.048  13.665  89.575  1.00  0.00     0.138 C 
BRANCH  33  34
HETATM   34  C   UNL     1       4.274  13.007  89.330  1.00  0.00     0.208 C 
HETATM   35  O   UNL     1       4.228  11.800  89.272  1.00  0.00    -0.289 OA
BRANCH  34  36
HETATM   36  C   UNL     1       5.463  13.494  88.863  1.00  0.00     0.194 C 
HETATM   37  O   UNL     1       6.624  12.820  88.468  1.00  0.00    -0.185 OA
ENDBRANCH  34  36
ENDBRANCH  33  34
ENDBRANCH  31  33
ENDBRANCH  26  31
ENDBRANCH  24  26
ENDBRANCH  19  22
ENDBRANCH  15  16
ENDBRANCH  11  14
ENDBRANCH   7   8
ENDBRANCH   2   7
TORSDOF 12
ENDMDL
MODEL 5
REMARK VINA RESULT:      -4.0      2.302     12.717
REMARK  12 active torsions:
REMARK  status: ('A' for Active; 'I' for Inactive)
REMARK    1  A    between atoms: O_2  and  C_16 
REMARK    2  A    between atoms: N_5  and  C_9 
REMARK    3  A    between atoms: N_6  and  C_13 
REMARK       I    between atoms: N_6  and  C_22 
REMARK    4  A    between atoms: C_9  and  C_12 
REMARK    5  A    between atoms: C_13  and  C_16 
REMARK    6  A    between atoms: C_13  and  C_21 
REMARK    7  A    between atoms: C_19  and  C_24 
REMARK    8  A    between atoms: C_21  and  C_33 
REMARK    9  A    between atoms: C_22  and  C_23 
REMARK   10  A    between atoms: C_27  and  C_30 
REMARK   11  A    between atoms: C_33  and  C_34 
REMARK   12  A    between atoms: C_34  and  C_35 
ROOT
HETATM    1  O   UNL     1       3.778  15.120  90.704  1.00  0.00    -0.350 OA
HETATM    2  N   UNL     1       2.671  13.916  93.033  1.00  0.00     0.147 N 
HETATM    3  C   UNL     1       4.025  14.488  93.034  1.00  0.00     0.283 C 
HETATM    4  C   UNL     1       2.325  13.444  91.685  1.00  0.00     0.283 C 
HETATM    5  C   UNL     1       4.112  15.611  92.003  1.00  0.00     0.178 C 
HETATM    6  C   UNL     1       2.452  14.591  90.687  1.00  0.00     0.178 C 
ENDROOT
BRANCH   2   7
HETATM    7  C   UNL     1       2.568  12.829  94.006  1.00  0.00     0.277 C 
BRANCH   7   8
HETATM    8  C   UNL     1       3.565  11.749  93.759  1.00  0.00     0.011 A 
HETATM    9  C   UNL     1       4.929  12.040  93.788  1.00  0.00    -0.002 A 
HETATM   10  C   UNL     1       5.863  11.031  93.555  1.00  0.00     0.008 A 
HETATM   11  C   UNL     1       5.432   9.730  93.295  1.00  0.00     0.042 A 
HETATM   12  C   UNL     1       4.070   9.438  93.266  1.00  0.00     0.008 A 
HETATM   13  C   UNL     1       3.136  10.448  93.498  1.00  0.00    -0.002 A 
BRANCH  11  14
HETATM   14  C   UNL     1       6.390   8.694  93.059  1.00  0.00    -0.059 C 
HETATM   15  C   UNL     1       7.194   7.823  92.860  1.00  0.00    -0.059 C 
BRANCH  15  16
HETATM   16  C   UNL     1       8.151   6.788  92.622  1.00  0.00     0.042 A 
HETATM   17  C   UNL     1       9.437   6.892  93.154  1.00  0.00     0.008 A 
HETATM   18  C   UNL     1      10.369   5.881  92.925  1.00  0.00     0.005 A 
HETATM   19  C   UNL     1       9.996   4.788  92.170  1.00  0.00     0.056 A 
HETATM   20  C   UNL     1       8.732   4.662  91.633  1.00  0.00     0.005 A 
HETATM   21  C   UNL     1       7.799   5.673  91.861  1.00  0.00     0.008 A 
BRANCH  19  22
HETATM   22  C   UNL     1      10.991   3.712  91.924  1.00  0.00     0.254 C 
HETATM   23  O   UNL     1      10.601   2.612  91.539  1.00  0.00    -0.268 OA
HETATM   24  N   UNL     1      12.320   4.053  92.132  1.00  0.00    -0.335 N 
HETATM   25  HN  UNL     1      12.569   4.990  92.427  1.00  0.00     0.164 HD
BRANCH  24  26
HETATM   26  C   UNL     1      13.402   3.127  91.913  1.00  0.00     0.166 C 
BRANCH  26  27
HETATM   27  C   UNL     1      14.445   3.657  90.921  1.00  0.00     0.138 C 
HETATM   28  C   UNL     1      14.179   3.197  89.492  1.00  0.00     0.034 C 
BRANCH  27  29
HETATM   29  O   UNL     1      14.454   5.084  90.955  1.00  0.00    -0.383 OA
HETATM   30  H   UNL     1      13.638   5.384  91.389  1.00  0.00     0.210 HD
ENDBRANCH  27  29
ENDBRANCH  26  27
BRANCH  26  31
HETATM   31  C   UNL     1      14.031   2.817  93.267  1.00  0.00     0.181 C 
HETATM   32  O   UNL     1      13.498   2.089  94.102  1.00  0.00    -0.294 OA
BRANCH  31  33
HETATM   33  C   UNL     1      15.557   2.292  93.116  1.00  0.00     0.138 C 
BRANCH  33  34
HETATM   34  C   UNL     1      16.257   3.268  93.861  1.00  0.00     0.208 C 
HETATM   35  O   UNL     1      17.417   3.024  94.100  1.00  0.00    -0.289 OA
BRANCH  34  36
HETATM   36  C   UNL     1      15.948   4.574  94.123  1.00  0.00     0.194 C 
HETATM   37  O   UNL     1      16.555   5.754  93.678  1.00  0.00    -0.185 OA
ENDBRANCH  34  36
ENDBRANCH  33  34
ENDBRANCH  31  33
ENDBRANCH  26  31
ENDBRANCH  24  26
ENDBRANCH  19  22
ENDBRANCH  15  16
ENDBRANCH  11  14
ENDBRANCH   7   8
ENDBRANCH   2   7
TORSDOF 12
ENDMDL
MODEL 6
REMARK VINA RESULT:      -3.6      3.020     12.310
REMARK  12 active torsions:
REMARK  status: ('A' for Active; 'I' for Inactive)
REMARK    1  A    between atoms: O_2  and  C_16 
REMARK    2  A    between atoms: N_5  and  C_9 
REMARK    3  A    between atoms: N_6  and  C_13 
REMARK       I    between atoms: N_6  and  C_22 
REMARK    4  A    between atoms: C_9  and  C_12 
REMARK    5  A    between atoms: C_13  and  C_16 
REMARK    6  A    between atoms: C_13  and  C_21 
REMARK    7  A    between atoms: C_19  and  C_24 
REMARK    8  A    between atoms: C_21  and  C_33 
REMARK    9  A    between atoms: C_22  and  C_23 
REMARK   10  A    between atoms: C_27  and  C_30 
REMARK   11  A    between atoms: C_33  and  C_34 
REMARK   12  A    between atoms: C_34  and  C_35 
ROOT
HETATM    1  O   UNL     1       3.190  14.991  94.124  1.00  0.00    -0.350 OA
HETATM    2  N   UNL     1       2.832  14.773  91.308  1.00  0.00     0.147 N 
HETATM    3  C   UNL     1       1.767  14.399  92.249  1.00  0.00     0.283 C 
HETATM    4  C   UNL     1       4.147  14.577  91.934  1.00  0.00     0.283 C 
HETATM    5  C   UNL     1       1.906  15.208  93.536  1.00  0.00     0.178 C 
HETATM    6  C   UNL     1       4.230  15.381  93.227  1.00  0.00     0.178 C 
ENDROOT
BRANCH   2   7
HETATM    7  C   UNL     1       2.725  14.001  90.071  1.00  0.00     0.277 C 
BRANCH   7   8
HETATM    8  C   UNL     1       3.710  12.884  90.012  1.00  0.00     0.011 A 
HETATM    9  C   UNL     1       3.560  11.778  90.849  1.00  0.00    -0.002 A 
HETATM   10  C   UNL     1       4.483  10.733  90.796  1.00  0.00     0.008 A 
HETATM   11  C   UNL     1       5.552  10.794  89.904  1.00  0.00     0.042 A 
HETATM   12  C   UNL     1       5.703  11.897  89.067  1.00  0.00     0.008 A 
HETATM   13  C   UNL     1       4.781  12.943  89.120  1.00  0.00    -0.002 A 
BRANCH  11  14
HETATM   14  C   UNL     1       6.497   9.721  89.847  1.00  0.00    -0.059 C 
HETATM   15  C   UNL     1       7.292   8.819  89.801  1.00  0.00    -0.059 C 
BRANCH  15  16
HETATM   16  C   UNL     1       8.235   7.747  89.745  1.00  0.00     0.042 A 
HETATM   17  C   UNL     1       9.225   7.639  90.723  1.00  0.00     0.008 A 
HETATM   18  C   UNL     1      10.144   6.591  90.671  1.00  0.00     0.005 A 
HETATM   19  C   UNL     1      10.053   5.675  89.643  1.00  0.00     0.056 A 
HETATM   20  C   UNL     1       9.085   5.760  88.665  1.00  0.00     0.005 A 
HETATM   21  C   UNL     1       8.165   6.808  88.716  1.00  0.00     0.008 A 
BRANCH  19  22
HETATM   22  C   UNL     1      11.033   4.560  89.587  1.00  0.00     0.254 C 
HETATM   23  O   UNL     1      11.121   3.890  88.560  1.00  0.00    -0.268 OA
HETATM   24  N   UNL     1      11.810   4.375  90.722  1.00  0.00    -0.335 N 
HETATM   25  HN  UNL     1      11.699   4.984  91.524  1.00  0.00     0.164 HD
BRANCH  24  26
HETATM   26  C   UNL     1      12.821   3.352  90.812  1.00  0.00     0.166 C 
BRANCH  26  27
HETATM   27  C   UNL     1      14.237   3.927  90.938  1.00  0.00     0.138 C 
HETATM   28  C   UNL     1      15.279   3.073  90.224  1.00  0.00     0.034 C 
BRANCH  27  29
HETATM   29  O   UNL     1      14.267   5.246  90.393  1.00  0.00    -0.383 OA
HETATM   30  H   UNL     1      14.378   5.175  89.430  1.00  0.00     0.210 HD
ENDBRANCH  27  29
ENDBRANCH  26  27
BRANCH  26  31
HETATM   31  C   UNL     1      12.476   2.460  92.000  1.00  0.00     0.181 C 
HETATM   32  O   UNL     1      13.267   2.225  92.912  1.00  0.00    -0.294 OA
BRANCH  31  33
HETATM   33  C   UNL     1      11.090   2.910  92.709  1.00  0.00     0.138 C 
BRANCH  33  34
HETATM   34  C   UNL     1      11.554   3.874  93.631  1.00  0.00     0.208 C 
HETATM   35  O   UNL     1      12.745   3.880  93.840  1.00  0.00    -0.289 OA
BRANCH  34  36
HETATM   36  C   UNL     1      10.946   4.997  94.123  1.00  0.00     0.194 C 
HETATM   37  O   UNL     1       9.713   5.573  93.799  1.00  0.00    -0.185 OA
ENDBRANCH  34  36
ENDBRANCH  33  34
ENDBRANCH  31  33
ENDBRANCH  26  31
ENDBRANCH  24  26
ENDBRANCH  19  22
ENDBRANCH  15  16
ENDBRANCH  11  14
ENDBRANCH   7   8
ENDBRANCH   2   7
TORSDOF 12
ENDMDL
