MODEL 1
REMARK VINA RESULT:      -6.2      0.000      0.000
REMARK  12 active torsions:
REMARK  status: ('A' for Active; 'I' for Inactive)
REMARK    1  A    between atoms: O_2  and  C_16 
REMARK    2  A    between atoms: N_5  and  C_9 
REMARK    3  A    between atoms: N_6  and  C_13 
REMARK       I    between atoms: N_6  and  C_22 
REMARK    4  A    between atoms: C_9  and  C_12 
REMARK    5  A    between atoms: C_13  and  C_16 
REMARK    6  A    between atoms: C_13  and  C_21 
REMARK    7  A    between atoms: C_19  and  C_24 
REMARK    8  A    between atoms: C_21  and  C_33 
REMARK    9  A    between atoms: C_22  and  C_23 
REMARK   10  A    between atoms: C_27  and  C_30 
REMARK   11  A    between atoms: C_33  and  C_34 
REMARK   12  A    between atoms: C_34  and  C_35 
ROOT
HETATM    1  O   UNL     1      16.838   3.738  93.839  1.00  0.00    -0.350 OA
HETATM    2  N   UNL     1      14.257   3.057  92.852  1.00  0.00     0.147 N 
HETATM    3  C   UNL     1      15.311   2.045  93.007  1.00  0.00     0.283 C 
HETATM    4  C   UNL     1      14.856   4.373  92.593  1.00  0.00     0.283 C 
HETATM    5  C   UNL     1      16.266   2.460  94.124  1.00  0.00     0.178 C 
HETATM    6  C   UNL     1      15.821   4.733  93.718  1.00  0.00     0.178 C 
ENDROOT
BRANCH   2   7
HETATM    7  C   UNL     1      13.336   2.685  91.780  1.00  0.00     0.277 C 
BRANCH   7   8
HETATM    8  C   UNL     1      12.170   3.609  91.686  1.00  0.00     0.011 A 
HETATM    9  C   UNL     1      11.417   3.898  92.825  1.00  0.00    -0.002 A 
HETATM   10  C   UNL     1      10.325   4.761  92.738  1.00  0.00     0.008 A 
HETATM   11  C   UNL     1       9.987   5.335  91.513  1.00  0.00     0.042 A 
HETATM   12  C   UNL     1      10.738   5.048  90.376  1.00  0.00     0.008 A 
HETATM   13  C   UNL     1      11.830   4.184  90.462  1.00  0.00    -0.002 A 
BRANCH  11  14
HETATM   14  C   UNL     1       8.867   6.222  91.425  1.00  0.00    -0.059 C 
HETATM   15  C   UNL     1       7.926   6.967  91.352  1.00  0.00    -0.059 C 
BRANCH  15  16
HETATM   16  C   UNL     1       6.808   7.853  91.264  1.00  0.00     0.042 A 
HETATM   17  C   UNL     1       6.902   9.146  91.781  1.00  0.00     0.008 A 
HETATM   18  C   UNL     1       5.811  10.011  91.693  1.00  0.00     0.005 A 
HETATM   19  C   UNL     1       4.653   9.566  91.091  1.00  0.00     0.056 A 
HETATM   20  C   UNL     1       4.536   8.293  90.572  1.00  0.00     0.005 A 
HETATM   21  C   UNL     1       5.625   7.427  90.660  1.00  0.00     0.008 A 
BRANCH  19  22
HETATM   22  C   UNL     1       3.492  10.488  90.999  1.00  0.00     0.254 C 
HETATM   23  O   UNL     1       2.494  10.135  90.375  1.00  0.00    -0.268 OA
HETATM   24  N   UNL     1       3.622  11.699  91.665  1.00  0.00    -0.335 N 
HETATM   25  HN  UNL     1       4.468  11.911  92.181  1.00  0.00     0.164 HD
BRANCH  24  26
HETATM   26  C   UNL     1       2.574  12.687  91.690  1.00  0.00     0.166 C 
BRANCH  26  27
HETATM   27  C   UNL     1       2.557  13.502  92.989  1.00  0.00     0.138 C 
HETATM   28  C   UNL     1       1.496  13.015  93.970  1.00  0.00     0.034 C 
BRANCH  27  29
HETATM   29  O   UNL     1       3.837  13.427  93.616  1.00  0.00    -0.383 OA
HETATM   30  H   UNL     1       3.756  13.781  94.518  1.00  0.00     0.210 HD
ENDBRANCH  27  29
ENDBRANCH  26  27
BRANCH  26  31
HETATM   31  C   UNL     1       2.754  13.588  90.473  1.00  0.00     0.181 C 
HETATM   32  O   UNL     1       1.870  14.333  90.054  1.00  0.00    -0.294 OA
BRANCH  31  33
HETATM   33  C   UNL     1       4.093  14.495  90.588  1.00  0.00     0.138 C 
BRANCH  33  34
HETATM   34  C   UNL     1       4.686  14.268  89.326  1.00  0.00     0.208 C 
HETATM   35  O   UNL     1       5.214  15.225  88.807  1.00  0.00    -0.289 OA
BRANCH  34  36
HETATM   36  C   UNL     1       5.025  13.099  88.702  1.00  0.00     0.194 C 
HETATM   37  O   UNL     1       6.254  12.433  88.635  1.00  0.00    -0.185 OA
ENDBRANCH  34  36
ENDBRANCH  33  34
ENDBRANCH  31  33
ENDBRANCH  26  31
ENDBRANCH  24  26
ENDBRANCH  19  22
ENDBRANCH  15  16
ENDBRANCH  11  14
ENDBRANCH   7   8
ENDBRANCH   2   7
TORSDOF 12
ENDMDL
