MODEL 1
REMARK VINA RESULT:      -7.5      0.000      0.000
REMARK  9 active torsions:
REMARK  status: ('A' for Active; 'I' for Inactive)
REMARK    1  A    between atoms: N_3  and  C_6 
REMARK    2  A    between atoms: C_6  and  C_9 
REMARK    3  A    between atoms: C_14  and  C_17 
REMARK       I    between atoms: N_26  and  C_15 
REMARK    4  A    between atoms: C_15  and  C_16 
REMARK    5  A    between atoms: C_20  and  C_23 
REMARK    6  A    between atoms: OG1_24  and  CB_28 
REMARK    7  A    between atoms: N_26  and  CA_27 
REMARK    8  A    between atoms: CA_27  and  CB_28 
REMARK    9  A    between atoms: CA_27  and  C_30 
ROOT
HETATM    1  O   UNK A   0       2.090   8.363  88.003  1.00  0.00    -0.388 OA
HETATM    2  N   UNK A   0       4.840   7.667  87.772  1.00  0.00     0.096 N 
HETATM    3  C   UNK A   0       4.402   9.069  87.788  1.00  0.00     0.299 C 
HETATM    4  C   UNK A   0       3.782   6.815  87.212  1.00  0.00     0.299 C 
HETATM    5  C   UNK A   0       3.101   9.195  88.576  1.00  0.00     0.198 C 
HETATM    6  C   UNK A   0       2.496   6.994  88.012  1.00  0.00     0.198 C 
ENDROOT
BRANCH   2   7
HETATM    7  C   UNK A   0       6.081   7.521  87.012  1.00  0.00     0.311 C 
BRANCH   7   8
HETATM    8  C   UNK A   0       7.176   6.919  87.824  1.00  0.00    -0.030 A 
HETATM    9  C   UNK A   0       6.997   6.715  89.193  1.00  0.00     0.010 A 
HETATM   10  C   UNK A   0       8.023   6.154  89.954  1.00  0.00     0.021 A 
HETATM   11  C   UNK A   0       9.225   5.796  89.346  1.00  0.00     0.018 A 
HETATM   12  C   UNK A   0       9.405   5.999  87.980  1.00  0.00     0.021 A 
HETATM   13  C   UNK A   0       8.380   6.561  87.218  1.00  0.00     0.010 A 
BRANCH  11  14
HETATM   14  C   UNK A   0      10.276   5.218  90.127  1.00  0.00    -0.061 C 
HETATM   15  C   UNK A   0      11.159   4.734  90.784  1.00  0.00    -0.061 C 
BRANCH  15  16
HETATM   16  C   UNK A   0      12.208   4.157  91.564  1.00  0.00     0.018 A 
HETATM   17  C   UNK A   0      11.961   3.762  92.880  1.00  0.00     0.022 A 
HETATM   18  C   UNK A   0      12.985   3.196  93.640  1.00  0.00     0.018 A 
HETATM   19  C   UNK A   0      14.230   3.037  93.069  1.00  0.00     0.032 A 
HETATM   20  C   UNK A   0      14.499   3.420  91.772  1.00  0.00     0.018 A 
HETATM   21  C   UNK A   0      13.477   3.986  91.010  1.00  0.00     0.022 A 
BRANCH  19  22
HETATM   22  C   UNK A   0      15.320   2.437  93.881  1.00  0.00     0.252 C 
HETATM   23  O   UNK A   0      16.477   2.810  93.701  1.00  0.00    -0.268 OA
ENDBRANCH  19  22
ENDBRANCH  15  16
ENDBRANCH  11  14
ENDBRANCH   7   8
ENDBRANCH   2   7
TORSDOF 9
ENDMDL
MODEL 2
REMARK VINA RESULT:      -7.5      0.222      1.029
REMARK  9 active torsions:
REMARK  status: ('A' for Active; 'I' for Inactive)
REMARK    1  A    between atoms: N_3  and  C_6 
REMARK    2  A    between atoms: C_6  and  C_9 
REMARK    3  A    between atoms: C_14  and  C_17 
REMARK       I    between atoms: N_26  and  C_15 
REMARK    4  A    between atoms: C_15  and  C_16 
REMARK    5  A    between atoms: C_20  and  C_23 
REMARK    6  A    between atoms: OG1_24  and  CB_28 
REMARK    7  A    between atoms: N_26  and  CA_27 
REMARK    8  A    between atoms: CA_27  and  CB_28 
REMARK    9  A    between atoms: CA_27  and  C_30 
ROOT
HETATM    1  O   UNK A   0       1.862   8.235  87.891  1.00  0.00    -0.388 OA
HETATM    2  N   UNK A   0       4.631   7.609  87.686  1.00  0.00     0.096 N 
HETATM    3  C   UNK A   0       4.162   8.999  87.768  1.00  0.00     0.299 C 
HETATM    4  C   UNK A   0       3.604   6.768  87.056  1.00  0.00     0.299 C 
HETATM    5  C   UNK A   0       2.841   9.055  88.532  1.00  0.00     0.198 C 
HETATM    6  C   UNK A   0       2.297   6.876  87.835  1.00  0.00     0.198 C 
ENDROOT
BRANCH   2   7
HETATM    7  C   UNK A   0       5.891   7.531  86.949  1.00  0.00     0.311 C 
BRANCH   7   8
HETATM    8  C   UNK A   0       6.991   6.943  87.765  1.00  0.00    -0.030 A 
HETATM    9  C   UNK A   0       8.241   6.715  87.188  1.00  0.00     0.010 A 
HETATM   10  C   UNK A   0       9.270   6.163  87.950  1.00  0.00     0.021 A 
HETATM   11  C   UNK A   0       9.049   5.840  89.289  1.00  0.00     0.018 A 
HETATM   12  C   UNK A   0       7.801   6.066  89.866  1.00  0.00     0.021 A 
HETATM   13  C   UNK A   0       6.772   6.618  89.104  1.00  0.00     0.010 A 
BRANCH  11  14
HETATM   14  C   UNK A   0      10.106   5.275  90.071  1.00  0.00    -0.061 C 
HETATM   15  C   UNK A   0      10.994   4.800  90.727  1.00  0.00    -0.061 C 
BRANCH  15  16
HETATM   16  C   UNK A   0      12.050   4.236  91.509  1.00  0.00     0.018 A 
HETATM   17  C   UNK A   0      11.826   3.901  92.844  1.00  0.00     0.022 A 
HETATM   18  C   UNK A   0      12.856   3.349  93.606  1.00  0.00     0.018 A 
HETATM   19  C   UNK A   0      14.085   3.143  93.015  1.00  0.00     0.032 A 
HETATM   20  C   UNK A   0      14.332   3.466  91.697  1.00  0.00     0.018 A 
HETATM   21  C   UNK A   0      13.303   4.019  90.935  1.00  0.00     0.022 A 
BRANCH  19  22
HETATM   22  C   UNK A   0      15.183   2.556  93.827  1.00  0.00     0.252 C 
HETATM   23  O   UNK A   0      16.339   2.918  93.624  1.00  0.00    -0.268 OA
ENDBRANCH  19  22
ENDBRANCH  15  16
ENDBRANCH  11  14
ENDBRANCH   7   8
ENDBRANCH   2   7
TORSDOF 9
ENDMDL
MODEL 3
REMARK VINA RESULT:      -7.5      0.165      1.021
REMARK  9 active torsions:
REMARK  status: ('A' for Active; 'I' for Inactive)
REMARK    1  A    between atoms: N_3  and  C_6 
REMARK    2  A    between atoms: C_6  and  C_9 
REMARK    3  A    between atoms: C_14  and  C_17 
REMARK       I    between atoms: N_26  and  C_15 
REMARK    4  A    between atoms: C_15  and  C_16 
REMARK    5  A    between atoms: C_20  and  C_23 
REMARK    6  A    between atoms: OG1_24  and  CB_28 
REMARK    7  A    between atoms: N_26  and  CA_27 
REMARK    8  A    between atoms: CA_27  and  CB_28 
REMARK    9  A    between atoms: CA_27  and  C_30 
ROOT
HETATM    1  O   UNK A   0       1.948   8.147  87.847  1.00  0.00    -0.388 OA
HETATM    2  N   UNK A   0       4.737   7.604  87.685  1.00  0.00     0.096 N 
HETATM    3  C   UNK A   0       4.227   8.978  87.789  1.00  0.00     0.299 C 
HETATM    4  C   UNK A   0       3.747   6.749  87.015  1.00  0.00     0.299 C 
HETATM    5  C   UNK A   0       2.890   8.979  88.526  1.00  0.00     0.198 C 
HETATM    6  C   UNK A   0       2.422   6.803  87.769  1.00  0.00     0.198 C 
ENDROOT
BRANCH   2   7
HETATM    7  C   UNK A   0       6.013   7.578  86.973  1.00  0.00     0.311 C 
BRANCH   7   8
HETATM    8  C   UNK A   0       7.105   6.969  87.786  1.00  0.00    -0.030 A 
HETATM    9  C   UNK A   0       6.899   6.701  89.140  1.00  0.00     0.010 A 
HETATM   10  C   UNK A   0       7.920   6.133  89.902  1.00  0.00     0.021 A 
HETATM   11  C   UNK A   0       9.146   5.832  89.309  1.00  0.00     0.018 A 
HETATM   12  C   UNK A   0       9.353   6.100  87.957  1.00  0.00     0.021 A 
HETATM   13  C   UNK A   0       8.332   6.668  87.195  1.00  0.00     0.010 A 
BRANCH  11  14
HETATM   14  C   UNK A   0      10.192   5.248  90.090  1.00  0.00    -0.061 C 
HETATM   15  C   UNK A   0      11.073   4.758  90.747  1.00  0.00    -0.061 C 
BRANCH  15  16
HETATM   16  C   UNK A   0      12.118   4.175  91.528  1.00  0.00     0.018 A 
HETATM   17  C   UNK A   0      13.374   3.959  90.960  1.00  0.00     0.022 A 
HETATM   18  C   UNK A   0      14.395   3.393  91.723  1.00  0.00     0.018 A 
HETATM   19  C   UNK A   0      14.138   3.056  93.036  1.00  0.00     0.032 A 
HETATM   20  C   UNK A   0      12.906   3.259  93.620  1.00  0.00     0.018 A 
HETATM   21  C   UNK A   0      11.884   3.825  92.857  1.00  0.00     0.022 A 
BRANCH  19  22
HETATM   22  C   UNK A   0      15.226   2.451  93.848  1.00  0.00     0.252 C 
HETATM   23  O   UNK A   0      16.345   2.958  93.824  1.00  0.00    -0.268 OA
ENDBRANCH  19  22
ENDBRANCH  15  16
ENDBRANCH  11  14
ENDBRANCH   7   8
ENDBRANCH   2   7
TORSDOF 9
ENDMDL
MODEL 4
REMARK VINA RESULT:      -6.9      1.496      2.240
REMARK  9 active torsions:
REMARK  status: ('A' for Active; 'I' for Inactive)
REMARK    1  A    between atoms: N_3  and  C_6 
REMARK    2  A    between atoms: C_6  and  C_9 
REMARK    3  A    between atoms: C_14  and  C_17 
REMARK       I    between atoms: N_26  and  C_15 
REMARK    4  A    between atoms: C_15  and  C_16 
REMARK    5  A    between atoms: C_20  and  C_23 
REMARK    6  A    between atoms: OG1_24  and  CB_28 
REMARK    7  A    between atoms: N_26  and  CA_27 
REMARK    8  A    between atoms: CA_27  and  CB_28 
REMARK    9  A    between atoms: CA_27  and  C_30 
ROOT
HETATM    1  O   UNK A   0       2.853  11.251  89.712  1.00  0.00    -0.388 OA
HETATM    2  N   UNK A   0       4.691   9.326  88.701  1.00  0.00     0.096 N 
HETATM    3  C   UNK A   0       3.873  10.153  87.803  1.00  0.00     0.299 C 
HETATM    4  C   UNK A   0       3.990   9.124  89.976  1.00  0.00     0.299 C 
HETATM    5  C   UNK A   0       3.541  11.480  88.481  1.00  0.00     0.198 C 
HETATM    6  C   UNK A   0       3.654  10.473  90.603  1.00  0.00     0.198 C 
ENDROOT
BRANCH   2   7
HETATM    7  C   UNK A   0       5.012   8.045  88.075  1.00  0.00     0.311 C 
BRANCH   7   8
HETATM    8  C   UNK A   0       6.210   7.400  88.684  1.00  0.00    -0.030 A 
HETATM    9  C   UNK A   0       7.474   7.960  88.494  1.00  0.00     0.010 A 
HETATM   10  C   UNK A   0       8.597   7.357  89.061  1.00  0.00     0.021 A 
HETATM   11  C   UNK A   0       8.454   6.195  89.820  1.00  0.00     0.018 A 
HETATM   12  C   UNK A   0       7.192   5.635  90.010  1.00  0.00     0.021 A 
HETATM   13  C   UNK A   0       6.070   6.238  89.442  1.00  0.00     0.010 A 
BRANCH  11  14
HETATM   14  C   UNK A   0       9.605   5.578  90.403  1.00  0.00    -0.061 C 
HETATM   15  C   UNK A   0      10.573   5.059  90.893  1.00  0.00    -0.061 C 
BRANCH  15  16
HETATM   16  C   UNK A   0      11.723   4.443  91.477  1.00  0.00     0.018 A 
HETATM   17  C   UNK A   0      12.905   4.337  90.743  1.00  0.00     0.022 A 
HETATM   18  C   UNK A   0      14.028   3.738  91.313  1.00  0.00     0.018 A 
HETATM   19  C   UNK A   0      13.945   3.260  92.604  1.00  0.00     0.032 A 
HETATM   20  C   UNK A   0      12.789   3.352  93.350  1.00  0.00     0.018 A 
HETATM   21  C   UNK A   0      11.665   3.950  92.781  1.00  0.00     0.022 A 
BRANCH  19  22
HETATM   22  C   UNK A   0      15.141   2.620  93.211  1.00  0.00     0.252 C 
HETATM   23  O   UNK A   0      14.991   1.812  94.124  1.00  0.00    -0.268 OA
ENDBRANCH  19  22
ENDBRANCH  15  16
ENDBRANCH  11  14
ENDBRANCH   7   8
ENDBRANCH   2   7
TORSDOF 9
ENDMDL
MODEL 5
REMARK VINA RESULT:      -6.7      3.376     10.305
REMARK  9 active torsions:
REMARK  status: ('A' for Active; 'I' for Inactive)
REMARK    1  A    between atoms: N_3  and  C_6 
REMARK    2  A    between atoms: C_6  and  C_9 
REMARK    3  A    between atoms: C_14  and  C_17 
REMARK       I    between atoms: N_26  and  C_15 
REMARK    4  A    between atoms: C_15  and  C_16 
REMARK    5  A    between atoms: C_20  and  C_23 
REMARK    6  A    between atoms: OG1_24  and  CB_28 
REMARK    7  A    between atoms: N_26  and  CA_27 
REMARK    8  A    between atoms: CA_27  and  CB_28 
REMARK    9  A    between atoms: CA_27  and  C_30 
ROOT
HETATM    1  O   UNK A   0      16.240   3.221  93.633  1.00  0.00    -0.388 OA
HETATM    2  N   UNK A   0      13.533   2.941  92.799  1.00  0.00     0.096 N 
HETATM    3  C   UNK A   0      14.369   1.770  93.100  1.00  0.00     0.299 C 
HETATM    4  C   UNK A   0      14.372   4.051  92.327  1.00  0.00     0.299 C 
HETATM    5  C   UNK A   0      15.437   2.147  94.124  1.00  0.00     0.198 C 
HETATM    6  C   UNK A   0      15.439   4.373  93.368  1.00  0.00     0.198 C 
ENDROOT
BRANCH   2   7
HETATM    7  C   UNK A   0      12.509   2.606  91.811  1.00  0.00     0.311 C 
BRANCH   7   8
HETATM    8  C   UNK A   0      11.637   3.769  91.480  1.00  0.00    -0.030 A 
HETATM    9  C   UNK A   0      11.007   4.480  92.502  1.00  0.00     0.010 A 
HETATM   10  C   UNK A   0      10.189   5.567  92.193  1.00  0.00     0.021 A 
HETATM   11  C   UNK A   0      10.004   5.943  90.863  1.00  0.00     0.018 A 
HETATM   12  C   UNK A   0      10.632   5.233  89.842  1.00  0.00     0.021 A 
HETATM   13  C   UNK A   0      11.449   4.146  90.150  1.00  0.00     0.010 A 
BRANCH  11  14
HETATM   14  C   UNK A   0       9.166   7.059  90.547  1.00  0.00    -0.061 C 
HETATM   15  C   UNK A   0       8.463   7.998  90.282  1.00  0.00    -0.061 C 
BRANCH  15  16
HETATM   16  C   UNK A   0       7.627   9.114  89.965  1.00  0.00     0.018 A 
HETATM   17  C   UNK A   0       6.242   9.005  90.093  1.00  0.00     0.022 A 
HETATM   18  C   UNK A   0       5.427  10.095  89.787  1.00  0.00     0.018 A 
HETATM   19  C   UNK A   0       6.015  11.267  89.361  1.00  0.00     0.032 A 
HETATM   20  C   UNK A   0       7.381  11.400  89.226  1.00  0.00     0.018 A 
HETATM   21  C   UNK A   0       8.197  10.311  89.532  1.00  0.00     0.022 A 
BRANCH  19  22
HETATM   22  C   UNK A   0       5.146  12.427  89.033  1.00  0.00     0.252 C 
HETATM   23  O   UNK A   0       4.747  12.571  87.880  1.00  0.00    -0.268 OA
ENDBRANCH  19  22
ENDBRANCH  15  16
ENDBRANCH  11  14
ENDBRANCH   7   8
ENDBRANCH   2   7
TORSDOF 9
ENDMDL
MODEL 6
REMARK VINA RESULT:      -6.6      3.780     10.407
REMARK  9 active torsions:
REMARK  status: ('A' for Active; 'I' for Inactive)
REMARK    1  A    between atoms: N_3  and  C_6 
REMARK    2  A    between atoms: C_6  and  C_9 
REMARK    3  A    between atoms: C_14  and  C_17 
REMARK       I    between atoms: N_26  and  C_15 
REMARK    4  A    between atoms: C_15  and  C_16 
REMARK    5  A    between atoms: C_20  and  C_23 
REMARK    6  A    between atoms: OG1_24  and  CB_28 
REMARK    7  A    between atoms: N_26  and  CA_27 
REMARK    8  A    between atoms: CA_27  and  CB_28 
REMARK    9  A    between atoms: CA_27  and  C_30 
ROOT
HETATM    1  O   UNK A   0      14.540   3.312  92.098  1.00  0.00    -0.388 OA
HETATM    2  N   UNK A   0      11.824   4.145  92.282  1.00  0.00     0.096 N 
HETATM    3  C   UNK A   0      12.437   3.292  93.310  1.00  0.00     0.299 C 
HETATM    4  C   UNK A   0      12.471   3.913  90.984  1.00  0.00     0.299 C 
HETATM    5  C   UNK A   0      13.939   3.555  93.372  1.00  0.00     0.198 C 
HETATM    6  C   UNK A   0      13.971   4.160  91.100  1.00  0.00     0.198 C 
ENDROOT
BRANCH   2   7
HETATM    7  C   UNK A   0      10.385   3.902  92.198  1.00  0.00     0.311 C 
BRANCH   7   8
HETATM    8  C   UNK A   0       9.615   5.146  91.910  1.00  0.00    -0.030 A 
HETATM    9  C   UNK A   0       9.843   6.297  92.666  1.00  0.00     0.010 A 
HETATM   10  C   UNK A   0       9.122   7.461  92.399  1.00  0.00     0.021 A 
HETATM   11  C   UNK A   0       8.174   7.473  91.376  1.00  0.00     0.018 A 
HETATM   12  C   UNK A   0       7.946   6.324  90.621  1.00  0.00     0.021 A 
HETATM   13  C   UNK A   0       8.666   5.160  90.888  1.00  0.00     0.010 A 
BRANCH  11  14
HETATM   14  C   UNK A   0       7.436   8.667  91.101  1.00  0.00    -0.061 C 
HETATM   15  C   UNK A   0       6.815   9.670  90.870  1.00  0.00    -0.061 C 
BRANCH  15  16
HETATM   16  C   UNK A   0       6.077  10.864  90.596  1.00  0.00     0.018 A 
HETATM   17  C   UNK A   0       5.238  11.403  91.572  1.00  0.00     0.022 A 
HETATM   18  C   UNK A   0       4.520  12.569  91.306  1.00  0.00     0.018 A 
HETATM   19  C   UNK A   0       4.657  13.169  90.071  1.00  0.00     0.032 A 
HETATM   20  C   UNK A   0       5.479  12.656  89.090  1.00  0.00     0.018 A 
HETATM   21  C   UNK A   0       6.198  11.490  89.356  1.00  0.00     0.022 A 
BRANCH  19  22
HETATM   22  C   UNK A   0       3.891  14.410  89.787  1.00  0.00     0.252 C 
HETATM   23  O   UNK A   0       4.474  15.492  89.803  1.00  0.00    -0.268 OA
ENDBRANCH  19  22
ENDBRANCH  15  16
ENDBRANCH  11  14
ENDBRANCH   7   8
ENDBRANCH   2   7
TORSDOF 9
ENDMDL
MODEL 7
REMARK VINA RESULT:      -6.5      3.655     10.267
REMARK  9 active torsions:
REMARK  status: ('A' for Active; 'I' for Inactive)
REMARK    1  A    between atoms: N_3  and  C_6 
REMARK    2  A    between atoms: C_6  and  C_9 
REMARK    3  A    between atoms: C_14  and  C_17 
REMARK       I    between atoms: N_26  and  C_15 
REMARK    4  A    between atoms: C_15  and  C_16 
REMARK    5  A    between atoms: C_20  and  C_23 
REMARK    6  A    between atoms: OG1_24  and  CB_28 
REMARK    7  A    between atoms: N_26  and  CA_27 
REMARK    8  A    between atoms: CA_27  and  CB_28 
REMARK    9  A    between atoms: CA_27  and  C_30 
ROOT
HETATM    1  O   UNK A   0      14.102   2.932  92.811  1.00  0.00    -0.388 OA
HETATM    2  N   UNK A   0      12.025   4.117  91.267  1.00  0.00     0.096 N 
HETATM    3  C   UNK A   0      11.766   2.973  92.153  1.00  0.00     0.299 C 
HETATM    4  C   UNK A   0      13.413   4.078  90.787  1.00  0.00     0.299 C 
HETATM    5  C   UNK A   0      12.763   2.978  93.309  1.00  0.00     0.198 C 
HETATM    6  C   UNK A   0      14.371   4.057  91.974  1.00  0.00     0.198 C 
ENDROOT
BRANCH   2   7
HETATM    7  C   UNK A   0      11.087   4.126  90.146  1.00  0.00     0.311 C 
BRANCH   7   8
HETATM    8  C   UNK A   0      10.244   5.355  90.120  1.00  0.00    -0.030 A 
HETATM    9  C   UNK A   0       9.827   5.939  91.317  1.00  0.00     0.010 A 
HETATM   10  C   UNK A   0       9.037   7.088  91.294  1.00  0.00     0.021 A 
HETATM   11  C   UNK A   0       8.665   7.653  90.075  1.00  0.00     0.018 A 
HETATM   12  C   UNK A   0       9.081   7.071  88.879  1.00  0.00     0.021 A 
HETATM   13  C   UNK A   0       9.871   5.921  88.901  1.00  0.00     0.010 A 
BRANCH  11  14
HETATM   14  C   UNK A   0       7.856   8.832  90.051  1.00  0.00    -0.061 C 
HETATM   15  C   UNK A   0       7.176   9.824  90.032  1.00  0.00    -0.061 C 
BRANCH  15  16
HETATM   16  C   UNK A   0       6.368  11.003  90.009  1.00  0.00     0.018 A 
HETATM   17  C   UNK A   0       5.505  11.277  91.071  1.00  0.00     0.022 A 
HETATM   18  C   UNK A   0       4.719  12.429  91.049  1.00  0.00     0.018 A 
HETATM   19  C   UNK A   0       4.814  13.281  89.968  1.00  0.00     0.032 A 
HETATM   20  C   UNK A   0       5.658  13.032  88.907  1.00  0.00     0.018 A 
HETATM   21  C   UNK A   0       6.445  11.880  88.927  1.00  0.00     0.022 A 
BRANCH  19  22
HETATM   22  C   UNK A   0       3.975  14.507  89.945  1.00  0.00     0.252 C 
HETATM   23  O   UNK A   0       4.520  15.606  89.886  1.00  0.00    -0.268 OA
ENDBRANCH  19  22
ENDBRANCH  15  16
ENDBRANCH  11  14
ENDBRANCH   7   8
ENDBRANCH   2   7
TORSDOF 9
ENDMDL
MODEL 8
REMARK VINA RESULT:      -6.3      2.015      2.912
REMARK  9 active torsions:
REMARK  status: ('A' for Active; 'I' for Inactive)
REMARK    1  A    between atoms: N_3  and  C_6 
REMARK    2  A    between atoms: C_6  and  C_9 
REMARK    3  A    between atoms: C_14  and  C_17 
REMARK       I    between atoms: N_26  and  C_15 
REMARK    4  A    between atoms: C_15  and  C_16 
REMARK    5  A    between atoms: C_20  and  C_23 
REMARK    6  A    between atoms: OG1_24  and  CB_28 
REMARK    7  A    between atoms: N_26  and  CA_27 
REMARK    8  A    between atoms: CA_27  and  CB_28 
REMARK    9  A    between atoms: CA_27  and  C_30 
ROOT
HETATM    1  O   UNK A   0       2.151   9.956  87.887  1.00  0.00    -0.388 OA
HETATM    2  N   UNK A   0       3.983   9.222  89.938  1.00  0.00     0.096 N 
HETATM    3  C   UNK A   0       2.791   8.413  89.647  1.00  0.00     0.299 C 
HETATM    4  C   UNK A   0       3.730  10.630  89.600  1.00  0.00     0.299 C 
HETATM    5  C   UNK A   0       2.398   8.580  88.182  1.00  0.00     0.198 C 
HETATM    6  C   UNK A   0       3.314  10.745  88.137  1.00  0.00     0.198 C 
ENDROOT
BRANCH   2   7
HETATM    7  C   UNK A   0       4.372   9.086  91.340  1.00  0.00     0.311 C 
BRANCH   7   8
HETATM    8  C   UNK A   0       5.625   8.295  91.508  1.00  0.00    -0.030 A 
HETATM    9  C   UNK A   0       6.553   8.232  90.468  1.00  0.00     0.010 A 
HETATM   10  C   UNK A   0       7.724   7.491  90.623  1.00  0.00     0.021 A 
HETATM   11  C   UNK A   0       7.967   6.815  91.818  1.00  0.00     0.018 A 
HETATM   12  C   UNK A   0       7.041   6.878  92.857  1.00  0.00     0.021 A 
HETATM   13  C   UNK A   0       5.869   7.618  92.703  1.00  0.00     0.010 A 
BRANCH  11  14
HETATM   14  C   UNK A   0       9.170   6.056  91.978  1.00  0.00    -0.061 C 
HETATM   15  C   UNK A   0      10.180   5.418  92.112  1.00  0.00    -0.061 C 
BRANCH  15  16
HETATM   16  C   UNK A   0      11.381   4.659  92.270  1.00  0.00     0.018 A 
HETATM   17  C   UNK A   0      11.752   4.198  93.534  1.00  0.00     0.022 A 
HETATM   18  C   UNK A   0      12.923   3.456  93.688  1.00  0.00     0.018 A 
HETATM   19  C   UNK A   0      13.696   3.191  92.576  1.00  0.00     0.032 A 
HETATM   20  C   UNK A   0      13.351   3.636  91.317  1.00  0.00     0.018 A 
HETATM   21  C   UNK A   0      12.180   4.379  91.162  1.00  0.00     0.022 A 
BRANCH  19  22
HETATM   22  C   UNK A   0      14.944   2.402  92.741  1.00  0.00     0.252 C 
HETATM   23  O   UNK A   0      15.481   2.353  93.845  1.00  0.00    -0.268 OA
ENDBRANCH  19  22
ENDBRANCH  15  16
ENDBRANCH  11  14
ENDBRANCH   7   8
ENDBRANCH   2   7
TORSDOF 9
ENDMDL
MODEL 9
REMARK VINA RESULT:      -6.0      3.457     10.032
REMARK  9 active torsions:
REMARK  status: ('A' for Active; 'I' for Inactive)
REMARK    1  A    between atoms: N_3  and  C_6 
REMARK    2  A    between atoms: C_6  and  C_9 
REMARK    3  A    between atoms: C_14  and  C_17 
REMARK       I    between atoms: N_26  and  C_15 
REMARK    4  A    between atoms: C_15  and  C_16 
REMARK    5  A    between atoms: C_20  and  C_23 
REMARK    6  A    between atoms: OG1_24  and  CB_28 
REMARK    7  A    between atoms: N_26  and  CA_27 
REMARK    8  A    between atoms: CA_27  and  CB_28 
REMARK    9  A    between atoms: CA_27  and  C_30 
ROOT
HETATM    1  O   UNK A   0      14.827   4.339  92.399  1.00  0.00    -0.388 OA
HETATM    2  N   UNK A   0      12.388   2.881  92.241  1.00  0.00     0.096 N 
HETATM    3  C   UNK A   0      12.832   3.755  91.146  1.00  0.00     0.299 C 
HETATM    4  C   UNK A   0      12.905   3.377  93.523  1.00  0.00     0.299 C 
HETATM    5  C   UNK A   0      14.356   3.845  91.143  1.00  0.00     0.198 C 
HETATM    6  C   UNK A   0      14.425   3.478  93.465  1.00  0.00     0.198 C 
ENDROOT
BRANCH   2   7
HETATM    7  C   UNK A   0      10.929   2.788  92.269  1.00  0.00     0.311 C 
BRANCH   7   8
HETATM    8  C   UNK A   0      10.271   4.054  91.837  1.00  0.00    -0.030 A 
HETATM    9  C   UNK A   0      10.241   5.152  92.698  1.00  0.00     0.010 A 
HETATM   10  C   UNK A   0       9.624   6.336  92.296  1.00  0.00     0.021 A 
HETATM   11  C   UNK A   0       9.038   6.422  91.033  1.00  0.00     0.018 A 
HETATM   12  C   UNK A   0       9.067   5.327  90.173  1.00  0.00     0.021 A 
HETATM   13  C   UNK A   0       9.684   4.142  90.575  1.00  0.00     0.010 A 
BRANCH  11  14
HETATM   14  C   UNK A   0       8.407   7.638  90.621  1.00  0.00    -0.061 C 
HETATM   15  C   UNK A   0       7.876   8.660  90.274  1.00  0.00    -0.061 C 
BRANCH  15  16
HETATM   16  C   UNK A   0       7.246   9.875  89.861  1.00  0.00     0.018 A 
HETATM   17  C   UNK A   0       8.000  10.878  89.251  1.00  0.00     0.022 A 
HETATM   18  C   UNK A   0       7.384  12.062  88.846  1.00  0.00     0.018 A 
HETATM   19  C   UNK A   0       6.031  12.217  89.059  1.00  0.00     0.032 A 
HETATM   20  C   UNK A   0       5.264  11.241  89.661  1.00  0.00     0.018 A 
HETATM   21  C   UNK A   0       5.878  10.056  90.066  1.00  0.00     0.022 A 
BRANCH  19  22
HETATM   22  C   UNK A   0       5.376  13.480  88.629  1.00  0.00     0.252 C 
HETATM   23  O   UNK A   0       5.092  13.635  87.444  1.00  0.00    -0.268 OA
ENDBRANCH  19  22
ENDBRANCH  15  16
ENDBRANCH  11  14
ENDBRANCH   7   8
ENDBRANCH   2   7
TORSDOF 9
ENDMDL
