MODEL 1
REMARK VINA RESULT:      -7.2      0.000      0.000
REMARK  9 active torsions:
REMARK  status: ('A' for Active; 'I' for Inactive)
REMARK    1  A    between atoms: O_2  and  C_17 
REMARK    2  A    between atoms: N_5  and  C_10 
REMARK    3  A    between atoms: N_6  and  C_14 
REMARK       I    between atoms: N_6  and  C_23 
REMARK       I    between atoms: N_7  and  C_22 
REMARK    4  A    between atoms: C_10  and  C_13 
REMARK    5  A    between atoms: C_14  and  C_17 
REMARK    6  A    between atoms: C_14  and  C_22 
REMARK    7  A    between atoms: C_20  and  C_25 
REMARK    8  A    between atoms: C_23  and  C_24 
REMARK    9  A    between atoms: C_28  and  C_31 
ROOT
HETATM    1  O   UNL     1      15.876   3.906  94.062  1.00  0.00    -0.388 OA
HETATM    2  N   UNL     1      14.057   2.567  92.331  1.00  0.00     0.096 N 
HETATM    3  C   UNL     1      14.245   4.023  92.269  1.00  0.00     0.299 C 
HETATM    4  C   UNL     1      14.319   2.083  93.693  1.00  0.00     0.299 C 
HETATM    5  C   UNL     1      15.654   4.382  92.734  1.00  0.00     0.198 C 
HETATM    6  C   UNL     1      15.725   2.487  94.124  1.00  0.00     0.198 C 
ENDROOT
BRANCH   2   7
HETATM    7  C   UNL     1      12.709   2.201  91.900  1.00  0.00     0.311 C 
BRANCH   7   8
HETATM    8  C   UNL     1      11.859   3.393  91.617  1.00  0.00    -0.030 A 
HETATM    9  C   UNL     1      11.714   3.851  90.307  1.00  0.00     0.010 A 
HETATM   10  C   UNL     1      10.922   4.968  90.042  1.00  0.00     0.021 A 
HETATM   11  C   UNL     1      10.273   5.624  91.087  1.00  0.00     0.018 A 
HETATM   12  C   UNL     1      10.416   5.168  92.396  1.00  0.00     0.021 A 
HETATM   13  C   UNL     1      11.209   4.052  92.661  1.00  0.00     0.010 A 
BRANCH  11  14
HETATM   14  C   UNL     1       9.458   6.768  90.815  1.00  0.00    -0.061 C 
HETATM   15  C   UNL     1       8.773   7.730  90.587  1.00  0.00    -0.061 C 
BRANCH  15  16
HETATM   16  C   UNL     1       7.959   8.874  90.316  1.00  0.00     0.018 A 
HETATM   17  C   UNL     1       6.674   8.958  90.853  1.00  0.00     0.022 A 
HETATM   18  C   UNL     1       5.882  10.075  90.591  1.00  0.00     0.018 A 
HETATM   19  C   UNL     1       6.391  11.082  89.798  1.00  0.00     0.032 A 
HETATM   20  C   UNL     1       7.657  11.022  89.254  1.00  0.00     0.018 A 
HETATM   21  C   UNL     1       8.450   9.906  89.516  1.00  0.00     0.022 A 
BRANCH  19  22
HETATM   22  C   UNL     1       5.545  12.271  89.517  1.00  0.00     0.252 C 
HETATM   23  O   UNL     1       5.642  12.832  88.428  1.00  0.00    -0.268 OA
HETATM   24  N   UNL     1       4.672  12.649  90.527  1.00  0.00    -0.342 N 
HETATM   25  H   UNL     1       4.629  12.122  91.392  1.00  0.00     0.163 HD
BRANCH  24  26
HETATM   26  C   UNL     1       3.770  13.765  90.396  1.00  0.00     0.199 C 
BRANCH  26  27
HETATM   27  C   UNL     1       2.525  13.630  91.282  1.00  0.00     0.145 C 
HETATM   28  C   UNL     1       2.808  12.876  92.576  1.00  0.00     0.042 C 
BRANCH  27  29
HETATM   29  O   UNL     1       2.023  14.927  91.601  1.00  0.00    -0.393 OA
HETATM   30  H   UNL     1       1.087  14.840  91.847  1.00  0.00     0.210 HD
ENDBRANCH  27  29
ENDBRANCH  26  27
BRANCH  26  31
HETATM   31  C   UNL     1       4.550  15.034  90.725  1.00  0.00     0.220 C 
HETATM   32  O   UNL     1       4.652  15.480  91.867  1.00  0.00    -0.278 OA
HETATM   33  N   UNL     1       5.078  15.625  89.603  1.00  0.00    -0.271 NA
HETATM   34  H   UNL     1       4.938  15.335  88.642  1.00  0.00     0.127 HD
HETATM   35  H   UNL     1       4.675  16.812  88.972  1.00  0.00     0.127 HD
ENDBRANCH  26  31
ENDBRANCH  24  26
ENDBRANCH  19  22
ENDBRANCH  15  16
ENDBRANCH  11  14
ENDBRANCH   7   8
ENDBRANCH   2   7
TORSDOF 9
ENDMDL
MODEL 2
REMARK VINA RESULT:      -7.0      1.625      2.409
REMARK  9 active torsions:
REMARK  status: ('A' for Active; 'I' for Inactive)
REMARK    1  A    between atoms: O_2  and  C_17 
REMARK    2  A    between atoms: N_5  and  C_10 
REMARK    3  A    between atoms: N_6  and  C_14 
REMARK       I    between atoms: N_6  and  C_23 
REMARK       I    between atoms: N_7  and  C_22 
REMARK    4  A    between atoms: C_10  and  C_13 
REMARK    5  A    between atoms: C_14  and  C_17 
REMARK    6  A    between atoms: C_14  and  C_22 
REMARK    7  A    between atoms: C_20  and  C_25 
REMARK    8  A    between atoms: C_23  and  C_24 
REMARK    9  A    between atoms: C_28  and  C_31 
ROOT
HETATM    1  O   UNL     1      17.316   4.247  93.703  1.00  0.00    -0.388 OA
HETATM    2  N   UNL     1      14.874   2.785  93.677  1.00  0.00     0.096 N 
HETATM    3  C   UNL     1      16.162   2.134  93.402  1.00  0.00     0.299 C 
HETATM    4  C   UNL     1      14.929   4.198  93.276  1.00  0.00     0.299 C 
HETATM    5  C   UNL     1      17.283   2.881  94.119  1.00  0.00     0.198 C 
HETATM    6  C   UNL     1      16.078   4.896  93.995  1.00  0.00     0.198 C 
ENDROOT
BRANCH   2   7
HETATM    7  C   UNL     1      13.785   2.092  92.991  1.00  0.00     0.311 C 
BRANCH   7   8
HETATM    8  C   UNL     1      12.750   3.032  92.474  1.00  0.00    -0.030 A 
HETATM    9  C   UNL     1      11.889   3.677  93.362  1.00  0.00     0.010 A 
HETATM   10  C   UNL     1      10.918   4.554  92.880  1.00  0.00     0.021 A 
HETATM   11  C   UNL     1      10.811   4.788  91.509  1.00  0.00     0.018 A 
HETATM   12  C   UNL     1      11.670   4.145  90.621  1.00  0.00     0.021 A 
HETATM   13  C   UNL     1      12.640   3.266  91.103  1.00  0.00     0.010 A 
BRANCH  11  14
HETATM   14  C   UNL     1       9.817   5.690  91.014  1.00  0.00    -0.061 C 
HETATM   15  C   UNL     1       8.981   6.449  90.599  1.00  0.00    -0.061 C 
BRANCH  15  16
HETATM   16  C   UNL     1       7.988   7.350  90.104  1.00  0.00     0.018 A 
HETATM   17  C   UNL     1       8.355   8.631  89.689  1.00  0.00     0.022 A 
HETATM   18  C   UNL     1       7.387   9.510  89.204  1.00  0.00     0.018 A 
HETATM   19  C   UNL     1       6.075   9.088  89.143  1.00  0.00     0.032 A 
HETATM   20  C   UNL     1       5.687   7.828  89.547  1.00  0.00     0.018 A 
HETATM   21  C   UNL     1       6.655   6.949  90.033  1.00  0.00     0.022 A 
BRANCH  19  22
HETATM   22  C   UNL     1       5.043  10.025  88.627  1.00  0.00     0.252 C 
HETATM   23  O   UNL     1       4.196   9.611  87.840  1.00  0.00    -0.268 OA
HETATM   24  N   UNL     1       5.108  11.325  89.109  1.00  0.00    -0.342 N 
HETATM   25  H   UNL     1       5.822  11.590  89.778  1.00  0.00     0.163 HD
BRANCH  24  26
HETATM   26  C   UNL     1       4.164  12.343  88.723  1.00  0.00     0.199 C 
BRANCH  26  27
HETATM   27  C   UNL     1       3.216  12.738  89.863  1.00  0.00     0.145 C 
HETATM   28  C   UNL     1       3.901  12.716  91.225  1.00  0.00     0.042 C 
BRANCH  27  29
HETATM   29  O   UNL     1       2.702  14.047  89.624  1.00  0.00    -0.393 OA
HETATM   30  H   UNL     1       3.436  14.616  89.335  1.00  0.00     0.210 HD
ENDBRANCH  27  29
ENDBRANCH  26  27
BRANCH  26  31
HETATM   31  C   UNL     1       4.956  13.545  88.219  1.00  0.00     0.220 C 
HETATM   32  O   UNL     1       5.534  14.329  88.969  1.00  0.00    -0.278 OA
HETATM   33  N   UNL     1       4.909  13.661  86.850  1.00  0.00    -0.271 NA
HETATM   34  H   UNL     1       4.371  13.088  86.211  1.00  0.00     0.127 HD
HETATM   35  H   UNL     1       4.220  14.610  86.079  1.00  0.00     0.127 HD
ENDBRANCH  26  31
ENDBRANCH  24  26
ENDBRANCH  19  22
ENDBRANCH  15  16
ENDBRANCH  11  14
ENDBRANCH   7   8
ENDBRANCH   2   7
TORSDOF 9
ENDMDL
MODEL 3
REMARK VINA RESULT:      -6.7      2.989      3.967
REMARK  9 active torsions:
REMARK  status: ('A' for Active; 'I' for Inactive)
REMARK    1  A    between atoms: O_2  and  C_17 
REMARK    2  A    between atoms: N_5  and  C_10 
REMARK    3  A    between atoms: N_6  and  C_14 
REMARK       I    between atoms: N_6  and  C_23 
REMARK       I    between atoms: N_7  and  C_22 
REMARK    4  A    between atoms: C_10  and  C_13 
REMARK    5  A    between atoms: C_14  and  C_17 
REMARK    6  A    between atoms: C_14  and  C_22 
REMARK    7  A    between atoms: C_20  and  C_25 
REMARK    8  A    between atoms: C_23  and  C_24 
REMARK    9  A    between atoms: C_28  and  C_31 
ROOT
HETATM    1  O   UNL     1      17.361   4.566  93.788  1.00  0.00    -0.388 OA
HETATM    2  N   UNL     1      15.306   2.604  93.620  1.00  0.00     0.096 N 
HETATM    3  C   UNL     1      16.710   2.272  93.338  1.00  0.00     0.299 C 
HETATM    4  C   UNL     1      15.049   4.016  93.304  1.00  0.00     0.299 C 
HETATM    5  C   UNL     1      17.629   3.204  94.124  1.00  0.00     0.198 C 
HETATM    6  C   UNL     1      16.007   4.905  94.089  1.00  0.00     0.198 C 
ENDROOT
BRANCH   2   7
HETATM    7  C   UNL     1      14.406   1.730  92.869  1.00  0.00     0.311 C 
BRANCH   7   8
HETATM    8  C   UNL     1      13.295   2.483  92.220  1.00  0.00    -0.030 A 
HETATM    9  C   UNL     1      11.991   2.348  92.698  1.00  0.00     0.010 A 
HETATM   10  C   UNL     1      10.949   3.049  92.091  1.00  0.00     0.021 A 
HETATM   11  C   UNL     1      11.213   3.887  91.007  1.00  0.00     0.018 A 
HETATM   12  C   UNL     1      12.515   4.023  90.530  1.00  0.00     0.021 A 
HETATM   13  C   UNL     1      13.557   3.321  91.136  1.00  0.00     0.010 A 
BRANCH  11  14
HETATM   14  C   UNL     1      10.145   4.608  90.386  1.00  0.00    -0.061 C 
HETATM   15  C   UNL     1       9.249   5.215  89.863  1.00  0.00    -0.061 C 
BRANCH  15  16
HETATM   16  C   UNL     1       8.182   5.935  89.241  1.00  0.00     0.018 A 
HETATM   17  C   UNL     1       8.296   6.336  87.909  1.00  0.00     0.022 A 
HETATM   18  C   UNL     1       7.253   7.037  87.302  1.00  0.00     0.018 A 
HETATM   19  C   UNL     1       6.122   7.319  88.038  1.00  0.00     0.032 A 
HETATM   20  C   UNL     1       5.985   6.933  89.355  1.00  0.00     0.018 A 
HETATM   21  C   UNL     1       7.027   6.233  89.964  1.00  0.00     0.022 A 
BRANCH  19  22
HETATM   22  C   UNL     1       5.013   8.067  87.391  1.00  0.00     0.252 C 
HETATM   23  O   UNL     1       4.789   7.892  86.196  1.00  0.00    -0.268 OA
HETATM   24  N   UNL     1       4.282   8.908  88.219  1.00  0.00    -0.342 N 
HETATM   25  H   UNL     1       4.509   8.982  89.204  1.00  0.00     0.163 HD
BRANCH  24  26
HETATM   26  C   UNL     1       3.162   9.681  87.746  1.00  0.00     0.199 C 
BRANCH  26  27
HETATM   27  C   UNL     1       1.812   9.030  88.071  1.00  0.00     0.145 C 
HETATM   28  C   UNL     1       1.603   7.716  87.328  1.00  0.00     0.042 C 
BRANCH  27  29
HETATM   29  O   UNL     1       1.725   8.788  89.475  1.00  0.00    -0.393 OA
HETATM   30  H   UNL     1       2.272   9.449  89.933  1.00  0.00     0.210 HD
ENDBRANCH  27  29
ENDBRANCH  26  27
BRANCH  26  31
HETATM   31  C   UNL     1       3.268  11.075  88.355  1.00  0.00     0.220 C 
HETATM   32  O   UNL     1       2.751  11.377  89.430  1.00  0.00    -0.278 OA
HETATM   33  N   UNL     1       3.964  11.943  87.549  1.00  0.00    -0.271 NA
HETATM   34  H   UNL     1       4.324  11.752  86.621  1.00  0.00     0.127 HD
HETATM   35  H   UNL     1       3.470  13.017  86.793  1.00  0.00     0.127 HD
ENDBRANCH  26  31
ENDBRANCH  24  26
ENDBRANCH  19  22
ENDBRANCH  15  16
ENDBRANCH  11  14
ENDBRANCH   7   8
ENDBRANCH   2   7
TORSDOF 9
ENDMDL
MODEL 4
REMARK VINA RESULT:      -6.6      1.646      2.563
REMARK  9 active torsions:
REMARK  status: ('A' for Active; 'I' for Inactive)
REMARK    1  A    between atoms: O_2  and  C_17 
REMARK    2  A    between atoms: N_5  and  C_10 
REMARK    3  A    between atoms: N_6  and  C_14 
REMARK       I    between atoms: N_6  and  C_23 
REMARK       I    between atoms: N_7  and  C_22 
REMARK    4  A    between atoms: C_10  and  C_13 
REMARK    5  A    between atoms: C_14  and  C_17 
REMARK    6  A    between atoms: C_14  and  C_22 
REMARK    7  A    between atoms: C_20  and  C_25 
REMARK    8  A    between atoms: C_23  and  C_24 
REMARK    9  A    between atoms: C_28  and  C_31 
ROOT
HETATM    1  O   UNL     1      15.862   3.831  94.068  1.00  0.00    -0.388 OA
HETATM    2  N   UNL     1      14.037   2.570  92.284  1.00  0.00     0.096 N 
HETATM    3  C   UNL     1      14.288   4.017  92.230  1.00  0.00     0.299 C 
HETATM    4  C   UNL     1      14.241   2.075  93.652  1.00  0.00     0.299 C 
HETATM    5  C   UNL     1      15.698   4.316  92.735  1.00  0.00     0.198 C 
HETATM    6  C   UNL     1      15.649   2.420  94.124  1.00  0.00     0.198 C 
ENDROOT
BRANCH   2   7
HETATM    7  C   UNL     1      12.688   2.262  91.814  1.00  0.00     0.311 C 
BRANCH   7   8
HETATM    8  C   UNL     1      11.771   3.433  91.910  1.00  0.00    -0.030 A 
HETATM    9  C   UNL     1      11.436   3.955  93.161  1.00  0.00     0.010 A 
HETATM   10  C   UNL     1      10.576   5.049  93.252  1.00  0.00     0.021 A 
HETATM   11  C   UNL     1      10.054   5.623  92.093  1.00  0.00     0.018 A 
HETATM   12  C   UNL     1      10.389   5.104  90.844  1.00  0.00     0.021 A 
HETATM   13  C   UNL     1      11.247   4.008  90.752  1.00  0.00     0.010 A 
BRANCH  11  14
HETATM   14  C   UNL     1       9.175   6.748  92.187  1.00  0.00    -0.061 C 
HETATM   15  C   UNL     1       8.436   7.693  92.265  1.00  0.00    -0.061 C 
BRANCH  15  16
HETATM   16  C   UNL     1       7.556   8.816  92.358  1.00  0.00     0.018 A 
HETATM   17  C   UNL     1       6.649   9.077  91.330  1.00  0.00     0.022 A 
HETATM   18  C   UNL     1       5.789  10.171  91.423  1.00  0.00     0.018 A 
HETATM   19  C   UNL     1       5.855  10.979  92.538  1.00  0.00     0.032 A 
HETATM   20  C   UNL     1       6.743  10.743  93.566  1.00  0.00     0.018 A 
HETATM   21  C   UNL     1       7.604   9.649  93.476  1.00  0.00     0.022 A 
BRANCH  19  22
HETATM   22  C   UNL     1       4.940  12.146  92.635  1.00  0.00     0.252 C 
HETATM   23  O   UNL     1       4.600  12.552  93.744  1.00  0.00    -0.268 OA
HETATM   24  N   UNL     1       4.552  12.716  91.430  1.00  0.00    -0.342 N 
HETATM   25  H   UNL     1       4.893  12.342  90.552  1.00  0.00     0.163 HD
BRANCH  24  26
HETATM   26  C   UNL     1       3.688  13.867  91.359  1.00  0.00     0.199 C 
BRANCH  26  27
HETATM   27  C   UNL     1       3.656  14.499  89.962  1.00  0.00     0.145 C 
HETATM   28  C   UNL     1       4.930  15.273  89.642  1.00  0.00     0.042 C 
BRANCH  27  29
HETATM   29  O   UNL     1       3.474  13.480  88.980  1.00  0.00    -0.393 OA
HETATM   30  H   UNL     1       3.195  13.902  88.150  1.00  0.00     0.210 HD
ENDBRANCH  27  29
ENDBRANCH  26  27
BRANCH  26  31
HETATM   31  C   UNL     1       2.295  13.431  91.803  1.00  0.00     0.220 C 
HETATM   32  O   UNL     1       1.797  12.353  91.485  1.00  0.00    -0.278 OA
HETATM   33  N   UNL     1       1.665  14.394  92.554  1.00  0.00    -0.271 NA
HETATM   34  H   UNL     1       2.009  15.325  92.759  1.00  0.00     0.127 HD
HETATM   35  H   UNL     1       0.586  15.215  92.191  1.00  0.00     0.127 HD
ENDBRANCH  26  31
ENDBRANCH  24  26
ENDBRANCH  19  22
ENDBRANCH  15  16
ENDBRANCH  11  14
ENDBRANCH   7   8
ENDBRANCH   2   7
TORSDOF 9
ENDMDL
MODEL 5
REMARK VINA RESULT:      -5.5      0.942      1.522
REMARK  9 active torsions:
REMARK  status: ('A' for Active; 'I' for Inactive)
REMARK    1  A    between atoms: O_2  and  C_17 
REMARK    2  A    between atoms: N_5  and  C_10 
REMARK    3  A    between atoms: N_6  and  C_14 
REMARK       I    between atoms: N_6  and  C_23 
REMARK       I    between atoms: N_7  and  C_22 
REMARK    4  A    between atoms: C_10  and  C_13 
REMARK    5  A    between atoms: C_14  and  C_17 
REMARK    6  A    between atoms: C_14  and  C_22 
REMARK    7  A    between atoms: C_20  and  C_25 
REMARK    8  A    between atoms: C_23  and  C_24 
REMARK    9  A    between atoms: C_28  and  C_31 
ROOT
HETATM    1  O   UNL     1      16.758   2.470  92.781  1.00  0.00    -0.388 OA
HETATM    2  N   UNL     1      13.961   2.898  93.093  1.00  0.00     0.096 N 
HETATM    3  C   UNL     1      14.713   2.031  94.011  1.00  0.00     0.299 C 
HETATM    4  C   UNL     1      14.596   2.898  91.768  1.00  0.00     0.299 C 
HETATM    5  C   UNL     1      16.167   2.490  94.082  1.00  0.00     0.198 C 
HETATM    6  C   UNL     1      16.052   3.335  91.890  1.00  0.00     0.198 C 
ENDROOT
BRANCH   2   7
HETATM    7  C   UNL     1      12.567   2.470  93.002  1.00  0.00     0.311 C 
BRANCH   7   8
HETATM    8  C   UNL     1      11.650   3.592  92.648  1.00  0.00    -0.030 A 
HETATM    9  C   UNL     1      11.125   3.682  91.359  1.00  0.00     0.010 A 
HETATM   10  C   UNL     1      10.269   4.732  91.027  1.00  0.00     0.021 A 
HETATM   11  C   UNL     1       9.938   5.690  91.984  1.00  0.00     0.018 A 
HETATM   12  C   UNL     1      10.462   5.601  93.272  1.00  0.00     0.021 A 
HETATM   13  C   UNL     1      11.318   4.551  93.605  1.00  0.00     0.010 A 
BRANCH  11  14
HETATM   14  C   UNL     1       9.058   6.766  91.644  1.00  0.00    -0.061 C 
HETATM   15  C   UNL     1       8.319   7.670  91.358  1.00  0.00    -0.061 C 
BRANCH  15  16
HETATM   16  C   UNL     1       7.439   8.745  91.019  1.00  0.00     0.018 A 
HETATM   17  C   UNL     1       7.922   9.838  90.298  1.00  0.00     0.022 A 
HETATM   18  C   UNL     1       7.063  10.885  89.965  1.00  0.00     0.018 A 
HETATM   19  C   UNL     1       5.743  10.816  90.359  1.00  0.00     0.032 A 
HETATM   20  C   UNL     1       5.242   9.747  91.072  1.00  0.00     0.018 A 
HETATM   21  C   UNL     1       6.100   8.699  91.406  1.00  0.00     0.022 A 
BRANCH  19  22
HETATM   22  C   UNL     1       4.829  11.934  90.005  1.00  0.00     0.252 C 
HETATM   23  O   UNL     1       4.510  12.098  88.830  1.00  0.00    -0.268 OA
HETATM   24  N   UNL     1       4.378  12.708  91.064  1.00  0.00    -0.342 N 
HETATM   25  H   UNL     1       4.665  12.497  92.013  1.00  0.00     0.163 HD
BRANCH  24  26
HETATM   26  C   UNL     1       3.469  13.812  90.886  1.00  0.00     0.199 C 
BRANCH  26  27
HETATM   27  C   UNL     1       2.344  13.829  91.929  1.00  0.00     0.145 C 
HETATM   28  C   UNL     1       2.709  13.059  93.194  1.00  0.00     0.042 C 
BRANCH  27  29
HETATM   29  O   UNL     1       2.038  15.178  92.279  1.00  0.00    -0.393 OA
HETATM   30  H   UNL     1       1.673  15.621  91.495  1.00  0.00     0.210 HD
ENDBRANCH  27  29
ENDBRANCH  26  27
BRANCH  26  31
HETATM   31  C   UNL     1       4.285  15.099  90.930  1.00  0.00     0.220 C 
HETATM   32  O   UNL     1       4.668  15.614  91.979  1.00  0.00    -0.278 OA
HETATM   33  N   UNL     1       4.499  15.621  89.677  1.00  0.00    -0.271 NA
HETATM   34  H   UNL     1       4.123  15.274  88.803  1.00  0.00     0.127 HD
HETATM   35  H   UNL     1       3.928  16.768  89.101  1.00  0.00     0.127 HD
ENDBRANCH  26  31
ENDBRANCH  24  26
ENDBRANCH  19  22
ENDBRANCH  15  16
ENDBRANCH  11  14
ENDBRANCH   7   8
ENDBRANCH   2   7
TORSDOF 9
ENDMDL
MODEL 6
REMARK VINA RESULT:      -5.4      2.412      3.362
REMARK  9 active torsions:
REMARK  status: ('A' for Active; 'I' for Inactive)
REMARK    1  A    between atoms: O_2  and  C_17 
REMARK    2  A    between atoms: N_5  and  C_10 
REMARK    3  A    between atoms: N_6  and  C_14 
REMARK       I    between atoms: N_6  and  C_23 
REMARK       I    between atoms: N_7  and  C_22 
REMARK    4  A    between atoms: C_10  and  C_13 
REMARK    5  A    between atoms: C_14  and  C_17 
REMARK    6  A    between atoms: C_14  and  C_22 
REMARK    7  A    between atoms: C_20  and  C_25 
REMARK    8  A    between atoms: C_23  and  C_24 
REMARK    9  A    between atoms: C_28  and  C_31 
ROOT
HETATM    1  O   UNL     1      17.437   4.445  93.746  1.00  0.00    -0.388 OA
HETATM    2  N   UNL     1      15.174   2.731  93.541  1.00  0.00     0.096 N 
HETATM    3  C   UNL     1      16.527   2.257  93.219  1.00  0.00     0.299 C 
HETATM    4  C   UNL     1      15.071   4.174  93.285  1.00  0.00     0.299 C 
HETATM    5  C   UNL     1      17.556   3.048  94.023  1.00  0.00     0.198 C 
HETATM    6  C   UNL     1      16.134   4.919  94.086  1.00  0.00     0.198 C 
ENDROOT
BRANCH   2   7
HETATM    7  C   UNL     1      14.171   1.994  92.774  1.00  0.00     0.311 C 
BRANCH   7   8
HETATM    8  C   UNL     1      13.075   2.875  92.279  1.00  0.00    -0.030 A 
HETATM    9  C   UNL     1      11.835   2.871  92.920  1.00  0.00     0.010 A 
HETATM   10  C   UNL     1      10.808   3.693  92.456  1.00  0.00     0.021 A 
HETATM   11  C   UNL     1      11.022   4.519  91.354  1.00  0.00     0.018 A 
HETATM   12  C   UNL     1      12.259   4.524  90.713  1.00  0.00     0.021 A 
HETATM   13  C   UNL     1      13.286   3.702  91.176  1.00  0.00     0.010 A 
BRANCH  11  14
HETATM   14  C   UNL     1       9.969   5.364  90.879  1.00  0.00    -0.061 C 
HETATM   15  C   UNL     1       9.084   6.074  90.480  1.00  0.00    -0.061 C 
BRANCH  15  16
HETATM   16  C   UNL     1       8.032   6.917  90.006  1.00  0.00     0.018 A 
HETATM   17  C   UNL     1       8.115   7.486  88.734  1.00  0.00     0.022 A 
HETATM   18  C   UNL     1       7.087   8.307  88.271  1.00  0.00     0.018 A 
HETATM   19  C   UNL     1       6.000   8.539  89.087  1.00  0.00     0.032 A 
HETATM   20  C   UNL     1       5.894   7.989  90.347  1.00  0.00     0.018 A 
HETATM   21  C   UNL     1       6.922   7.168  90.812  1.00  0.00     0.022 A 
BRANCH  19  22
HETATM   22  C   UNL     1       4.906   9.415  88.593  1.00  0.00     0.252 C 
HETATM   23  O   UNL     1       4.640   9.424  87.393  1.00  0.00    -0.268 OA
HETATM   24  N   UNL     1       4.238  10.156  89.558  1.00  0.00    -0.342 N 
HETATM   25  H   UNL     1       4.497  10.079  90.534  1.00  0.00     0.163 HD
BRANCH  24  26
HETATM   26  C   UNL     1       3.139  11.032  89.239  1.00  0.00     0.199 C 
BRANCH  26  27
HETATM   27  C   UNL     1       3.599  12.371  88.648  1.00  0.00     0.145 C 
HETATM   28  C   UNL     1       4.462  13.172  89.617  1.00  0.00     0.042 C 
BRANCH  27  29
HETATM   29  O   UNL     1       4.343  12.134  87.453  1.00  0.00    -0.393 OA
HETATM   30  H   UNL     1       3.778  12.356  86.693  1.00  0.00     0.210 HD
ENDBRANCH  27  29
ENDBRANCH  26  27
BRANCH  26  31
HETATM   31  C   UNL     1       2.215  10.291  88.279  1.00  0.00     0.220 C 
HETATM   32  O   UNL     1       1.873   9.122  88.448  1.00  0.00    -0.278 OA
HETATM   33  N   UNL     1       1.851  11.066  87.205  1.00  0.00    -0.271 NA
HETATM   34  H   UNL     1       2.184  11.999  86.990  1.00  0.00     0.127 HD
HETATM   35  H   UNL     1       2.265  10.953  85.868  1.00  0.00     0.127 HD
ENDBRANCH  26  31
ENDBRANCH  24  26
ENDBRANCH  19  22
ENDBRANCH  15  16
ENDBRANCH  11  14
ENDBRANCH   7   8
ENDBRANCH   2   7
TORSDOF 9
ENDMDL
MODEL 7
REMARK VINA RESULT:      -5.3      1.651     12.298
REMARK  9 active torsions:
REMARK  status: ('A' for Active; 'I' for Inactive)
REMARK    1  A    between atoms: O_2  and  C_17 
REMARK    2  A    between atoms: N_5  and  C_10 
REMARK    3  A    between atoms: N_6  and  C_14 
REMARK       I    between atoms: N_6  and  C_23 
REMARK       I    between atoms: N_7  and  C_22 
REMARK    4  A    between atoms: C_10  and  C_13 
REMARK    5  A    between atoms: C_14  and  C_17 
REMARK    6  A    between atoms: C_14  and  C_22 
REMARK    7  A    between atoms: C_20  and  C_25 
REMARK    8  A    between atoms: C_23  and  C_24 
REMARK    9  A    between atoms: C_28  and  C_31 
ROOT
HETATM    1  O   UNL     1       3.840  14.635  92.310  1.00  0.00    -0.388 OA
HETATM    2  N   UNL     1       3.553  13.280  89.823  1.00  0.00     0.096 N 
HETATM    3  C   UNL     1       2.764  12.897  91.002  1.00  0.00     0.299 C 
HETATM    4  C   UNL     1       4.840  13.852  90.243  1.00  0.00     0.299 C 
HETATM    5  C   UNL     1       2.573  14.107  91.912  1.00  0.00     0.198 C 
HETATM    6  C   UNL     1       4.601  15.039  91.171  1.00  0.00     0.198 C 
ENDROOT
BRANCH   2   7
HETATM    7  C   UNL     1       3.758  12.132  88.941  1.00  0.00     0.311 C 
BRANCH   7   8
HETATM    8  C   UNL     1       4.756  11.168  89.486  1.00  0.00    -0.030 A 
HETATM    9  C   UNL     1       4.326  10.053  90.206  1.00  0.00     0.010 A 
HETATM   10  C   UNL     1       5.259   9.152  90.718  1.00  0.00     0.021 A 
HETATM   11  C   UNL     1       6.621   9.365  90.507  1.00  0.00     0.018 A 
HETATM   12  C   UNL     1       7.052  10.478  89.787  1.00  0.00     0.021 A 
HETATM   13  C   UNL     1       6.119  11.380  89.276  1.00  0.00     0.010 A 
BRANCH  11  14
HETATM   14  C   UNL     1       7.578   8.439  91.031  1.00  0.00    -0.061 C 
HETATM   15  C   UNL     1       8.383   7.661  91.470  1.00  0.00    -0.061 C 
BRANCH  15  16
HETATM   16  C   UNL     1       9.340   6.736  91.992  1.00  0.00     0.018 A 
HETATM   17  C   UNL     1       9.669   6.766  93.348  1.00  0.00     0.022 A 
HETATM   18  C   UNL     1      10.601   5.862  93.858  1.00  0.00     0.018 A 
HETATM   19  C   UNL     1      11.181   4.949  93.003  1.00  0.00     0.032 A 
HETATM   20  C   UNL     1      10.873   4.899  91.660  1.00  0.00     0.018 A 
HETATM   21  C   UNL     1       9.942   5.803  91.148  1.00  0.00     0.022 A 
BRANCH  19  22
HETATM   22  C   UNL     1      12.175   3.988  93.547  1.00  0.00     0.252 C 
HETATM   23  O   UNL     1      11.779   2.978  94.124  1.00  0.00    -0.268 OA
HETATM   24  N   UNL     1      13.509   4.305  93.332  1.00  0.00    -0.342 N 
HETATM   25  H   UNL     1      13.761   5.145  92.825  1.00  0.00     0.163 HD
BRANCH  24  26
HETATM   26  C   UNL     1      14.589   3.461  93.777  1.00  0.00     0.199 C 
BRANCH  26  27
HETATM   27  C   UNL     1      14.736   2.190  92.931  1.00  0.00     0.145 C 
HETATM   28  C   UNL     1      14.646   0.919  93.768  1.00  0.00     0.042 C 
BRANCH  27  29
HETATM   29  O   UNL     1      13.716   2.161  91.933  1.00  0.00    -0.393 OA
HETATM   30  H   UNL     1      13.782   1.317  91.455  1.00  0.00     0.210 HD
ENDBRANCH  27  29
ENDBRANCH  26  27
BRANCH  26  31
HETATM   31  C   UNL     1      15.868   4.292  93.758  1.00  0.00     0.220 C 
HETATM   32  O   UNL     1      15.868   5.519  93.688  1.00  0.00    -0.278 OA
HETATM   33  N   UNL     1      16.996   3.508  93.787  1.00  0.00    -0.271 NA
HETATM   34  H   UNL     1      17.033   2.496  93.754  1.00  0.00     0.127 HD
HETATM   35  H   UNL     1      17.911   3.260  92.752  1.00  0.00     0.127 HD
ENDBRANCH  26  31
ENDBRANCH  24  26
ENDBRANCH  19  22
ENDBRANCH  15  16
ENDBRANCH  11  14
ENDBRANCH   7   8
ENDBRANCH   2   7
TORSDOF 9
ENDMDL
MODEL 8
REMARK VINA RESULT:      -5.2      1.995     12.339
REMARK  9 active torsions:
REMARK  status: ('A' for Active; 'I' for Inactive)
REMARK    1  A    between atoms: O_2  and  C_17 
REMARK    2  A    between atoms: N_5  and  C_10 
REMARK    3  A    between atoms: N_6  and  C_14 
REMARK       I    between atoms: N_6  and  C_23 
REMARK       I    between atoms: N_7  and  C_22 
REMARK    4  A    between atoms: C_10  and  C_13 
REMARK    5  A    between atoms: C_14  and  C_17 
REMARK    6  A    between atoms: C_14  and  C_22 
REMARK    7  A    between atoms: C_20  and  C_25 
REMARK    8  A    between atoms: C_23  and  C_24 
REMARK    9  A    between atoms: C_28  and  C_31 
ROOT
HETATM    1  O   UNL     1       5.546  14.733  88.431  1.00  0.00    -0.388 OA
HETATM    2  N   UNL     1       3.667  13.282  90.001  1.00  0.00     0.096 N 
HETATM    3  C   UNL     1       4.311  14.501  90.508  1.00  0.00     0.299 C 
HETATM    4  C   UNL     1       4.552  12.606  89.042  1.00  0.00     0.299 C 
HETATM    5  C   UNL     1       4.680  15.414  89.341  1.00  0.00     0.198 C 
HETATM    6  C   UNL     1       4.915  13.563  87.910  1.00  0.00     0.198 C 
ENDROOT
BRANCH   2   7
HETATM    7  C   UNL     1       3.315  12.387  91.102  1.00  0.00     0.311 C 
BRANCH   7   8
HETATM    8  C   UNL     1       4.370  11.367  91.365  1.00  0.00    -0.030 A 
HETATM    9  C   UNL     1       4.437  10.216  90.579  1.00  0.00     0.010 A 
HETATM   10  C   UNL     1       5.422   9.260  90.825  1.00  0.00     0.021 A 
HETATM   11  C   UNL     1       6.341   9.457  91.855  1.00  0.00     0.018 A 
HETATM   12  C   UNL     1       6.276  10.606  92.641  1.00  0.00     0.021 A 
HETATM   13  C   UNL     1       5.290  11.562  92.395  1.00  0.00     0.010 A 
BRANCH  11  14
HETATM   14  C   UNL     1       7.353   8.477  92.106  1.00  0.00    -0.061 C 
HETATM   15  C   UNL     1       8.204   7.654  92.318  1.00  0.00    -0.061 C 
BRANCH  15  16
HETATM   16  C   UNL     1       9.215   6.675  92.570  1.00  0.00     0.018 A 
HETATM   17  C   UNL     1       9.913   6.105  91.505  1.00  0.00     0.022 A 
HETATM   18  C   UNL     1      10.901   5.152  91.751  1.00  0.00     0.018 A 
HETATM   19  C   UNL     1      11.169   4.791  93.054  1.00  0.00     0.032 A 
HETATM   20  C   UNL     1      10.493   5.339  94.124  1.00  0.00     0.018 A 
HETATM   21  C   UNL     1       9.505   6.292  93.879  1.00  0.00     0.022 A 
BRANCH  19  22
HETATM   22  C   UNL     1      12.221   3.774  93.316  1.00  0.00     0.252 C 
HETATM   23  O   UNL     1      11.892   2.605  93.503  1.00  0.00    -0.268 OA
HETATM   24  N   UNL     1      13.530   4.235  93.303  1.00  0.00    -0.342 N 
HETATM   25  H   UNL     1      13.728   5.211  93.116  1.00  0.00     0.163 HD
BRANCH  24  26
HETATM   26  C   UNL     1      14.660   3.368  93.515  1.00  0.00     0.199 C 
BRANCH  26  27
HETATM   27  C   UNL     1      14.915   2.425  92.332  1.00  0.00     0.145 C 
HETATM   28  C   UNL     1      14.667   3.097  90.986  1.00  0.00     0.042 C 
BRANCH  27  29
HETATM   29  O   UNL     1      16.264   1.959  92.375  1.00  0.00    -0.393 OA
HETATM   30  H   UNL     1      16.323   1.148  91.843  1.00  0.00     0.210 HD
ENDBRANCH  27  29
ENDBRANCH  26  27
BRANCH  26  31
HETATM   31  C   UNL     1      15.875   4.246  93.796  1.00  0.00     0.220 C 
HETATM   32  O   UNL     1      15.841   5.474  93.744  1.00  0.00    -0.278 OA
HETATM   33  N   UNL     1      16.999   3.505  94.072  1.00  0.00    -0.271 NA
HETATM   34  H   UNL     1      17.084   2.495  94.036  1.00  0.00     0.127 HD
HETATM   35  H   UNL     1      18.134   3.312  93.269  1.00  0.00     0.127 HD
ENDBRANCH  26  31
ENDBRANCH  24  26
ENDBRANCH  19  22
ENDBRANCH  15  16
ENDBRANCH  11  14
ENDBRANCH   7   8
ENDBRANCH   2   7
TORSDOF 9
ENDMDL
MODEL 9
REMARK VINA RESULT:      -5.0      2.110     12.236
REMARK  9 active torsions:
REMARK  status: ('A' for Active; 'I' for Inactive)
REMARK    1  A    between atoms: O_2  and  C_17 
REMARK    2  A    between atoms: N_5  and  C_10 
REMARK    3  A    between atoms: N_6  and  C_14 
REMARK       I    between atoms: N_6  and  C_23 
REMARK       I    between atoms: N_7  and  C_22 
REMARK    4  A    between atoms: C_10  and  C_13 
REMARK    5  A    between atoms: C_14  and  C_17 
REMARK    6  A    between atoms: C_14  and  C_22 
REMARK    7  A    between atoms: C_20  and  C_25 
REMARK    8  A    between atoms: C_23  and  C_24 
REMARK    9  A    between atoms: C_28  and  C_31 
ROOT
HETATM    1  O   UNL     1       3.533  15.237  94.114  1.00  0.00    -0.388 OA
HETATM    2  N   UNL     1       2.848  14.576  91.431  1.00  0.00     0.096 N 
HETATM    3  C   UNL     1       1.935  14.296  92.548  1.00  0.00     0.299 C 
HETATM    4  C   UNL     1       4.240  14.544  91.899  1.00  0.00     0.299 C 
HETATM    5  C   UNL     1       2.174  15.298  93.675  1.00  0.00     0.198 C 
HETATM    6  C   UNL     1       4.426  15.539  93.041  1.00  0.00     0.198 C 
ENDROOT
BRANCH   2   7
HETATM    7  C   UNL     1       2.643  13.621  90.344  1.00  0.00     0.311 C 
BRANCH   7   8
HETATM    8  C   UNL     1       3.594  12.475  90.408  1.00  0.00    -0.030 A 
HETATM    9  C   UNL     1       3.285  11.356  91.182  1.00  0.00     0.010 A 
HETATM   10  C   UNL     1       4.174  10.283  91.245  1.00  0.00     0.021 A 
HETATM   11  C   UNL     1       5.372  10.330  90.531  1.00  0.00     0.018 A 
HETATM   12  C   UNL     1       5.681  11.447  89.758  1.00  0.00     0.021 A 
HETATM   13  C   UNL     1       4.792  12.519  89.696  1.00  0.00     0.010 A 
BRANCH  11  14
HETATM   14  C   UNL     1       6.284   9.229  90.594  1.00  0.00    -0.061 C 
HETATM   15  C   UNL     1       7.050   8.305  90.647  1.00  0.00    -0.061 C 
BRANCH  15  16
HETATM   16  C   UNL     1       7.962   7.205  90.710  1.00  0.00     0.018 A 
HETATM   17  C   UNL     1       7.493   5.902  90.538  1.00  0.00     0.022 A 
HETATM   18  C   UNL     1       8.383   4.829  90.597  1.00  0.00     0.018 A 
HETATM   19  C   UNL     1       9.719   5.083  90.826  1.00  0.00     0.032 A 
HETATM   20  C   UNL     1      10.206   6.361  91.000  1.00  0.00     0.018 A 
HETATM   21  C   UNL     1       9.318   7.435  90.941  1.00  0.00     0.022 A 
BRANCH  19  22
HETATM   22  C   UNL     1      10.666   3.939  90.891  1.00  0.00     0.252 C 
HETATM   23  O   UNL     1      10.393   2.900  90.295  1.00  0.00    -0.268 OA
HETATM   24  N   UNL     1      11.827   4.152  91.622  1.00  0.00    -0.342 N 
HETATM   25  H   UNL     1      11.996   5.046  92.067  1.00  0.00     0.163 HD
BRANCH  24  26
HETATM   26  C   UNL     1      12.852   3.149  91.758  1.00  0.00     0.199 C 
BRANCH  26  27
HETATM   27  C   UNL     1      14.227   3.637  91.283  1.00  0.00     0.145 C 
HETATM   28  C   UNL     1      14.126   4.791  90.291  1.00  0.00     0.042 C 
BRANCH  27  29
HETATM   29  O   UNL     1      14.998   4.059  92.408  1.00  0.00    -0.393 OA
HETATM   30  H   UNL     1      15.838   4.422  92.082  1.00  0.00     0.210 HD
ENDBRANCH  27  29
ENDBRANCH  26  27
BRANCH  26  31
HETATM   31  C   UNL     1      12.891   2.718  93.220  1.00  0.00     0.220 C 
HETATM   32  O   UNL     1      12.361   3.363  94.123  1.00  0.00    -0.278 OA
HETATM   33  N   UNL     1      13.612   1.562  93.402  1.00  0.00    -0.271 NA
HETATM   34  H   UNL     1      14.135   1.056  92.696  1.00  0.00     0.127 HD
HETATM   35  H   UNL     1      14.874   1.407  93.996  1.00  0.00     0.127 HD
ENDBRANCH  26  31
ENDBRANCH  24  26
ENDBRANCH  19  22
ENDBRANCH  15  16
ENDBRANCH  11  14
ENDBRANCH   7   8
ENDBRANCH   2   7
TORSDOF 9
ENDMDL
