MODEL 1
REMARK VINA RESULT:      -6.9      0.000      0.000
REMARK  10 active torsions:
REMARK  status: ('A' for Active; 'I' for Inactive)
REMARK    1  A    between atoms: O_2  and  C_18 
REMARK    2  A    between atoms: O_5  and  N_8 
REMARK    3  A    between atoms: N_6  and  C_11 
REMARK    4  A    between atoms: N_7  and  C_15 
REMARK       I    between atoms: N_7  and  C_24 
REMARK       I    between atoms: N_8  and  C_23 
REMARK    5  A    between atoms: C_11  and  C_14 
REMARK    6  A    between atoms: C_15  and  C_18 
REMARK    7  A    between atoms: C_15  and  C_23 
REMARK    8  A    between atoms: C_21  and  C_26 
REMARK    9  A    between atoms: C_24  and  C_25 
REMARK   10  A    between atoms: C_29  and  C_32 
ROOT
HETATM    1  O   UNK     0      16.861   4.331  94.124  0.00  0.00    -0.388 OA
HETATM    2  N   UNK     0      14.939   2.645  92.874  0.00  0.00     0.096 N 
HETATM    3  C   UNK     0      14.798   4.108  92.866  0.00  0.00     0.299 C 
HETATM    4  C   UNK     0      15.673   2.216  94.071  0.00  0.00     0.299 C 
HETATM    5  C   UNK     0      16.175   4.760  92.946  0.00  0.00     0.198 C 
HETATM    6  C   UNK     0      17.030   2.913  94.124  0.00  0.00     0.198 C 
ENDROOT
BRANCH   2   7
HETATM    7  C   UNK     0      13.630   1.998  92.809  0.00  0.00     0.311 C 
BRANCH   7   8
HETATM    8  C   UNK     0      12.544   2.949  92.434  0.00  0.00    -0.030 A 
HETATM    9  C   UNK     0      11.927   3.724  93.416  0.00  0.00     0.010 A 
HETATM   10  C   UNK     0      10.911   4.613  93.067  0.00  0.00     0.021 A 
HETATM   11  C   UNK     0      10.513   4.727  91.735  0.00  0.00     0.018 A 
HETATM   12  C   UNK     0      11.128   3.954  90.753  0.00  0.00     0.021 A 
HETATM   13  C   UNK     0      12.145   3.064  91.102  0.00  0.00     0.010 A 
BRANCH  11  14
HETATM   14  C   UNK     0       9.471   5.640  91.377  0.00  0.00    -0.061 C 
HETATM   15  C   UNK     0       8.596   6.407  91.076  0.00  0.00    -0.061 C 
BRANCH  15  16
HETATM   16  C   UNK     0       7.556   7.319  90.717  0.00  0.00     0.018 A 
HETATM   17  C   UNK     0       7.578   8.627  91.204  0.00  0.00     0.022 A 
HETATM   18  C   UNK     0       6.565   9.518  90.852  0.00  0.00     0.018 A 
HETATM   19  C   UNK     0       5.553   9.084  90.021  0.00  0.00     0.032 A 
HETATM   20  C   UNK     0       5.509   7.798  89.527  0.00  0.00     0.018 A 
HETATM   21  C   UNK     0       6.521   6.905  89.879  0.00  0.00     0.022 A 
BRANCH  19  22
HETATM   22  C   UNK     0       4.473  10.034  89.648  0.00  0.00     0.252 C 
HETATM   23  O   UNK     0       3.552   9.644  88.935  0.00  0.00    -0.268 OA
HETATM   24  N   UNK     0       4.582  11.315  90.172  0.00  0.00    -0.341 N 
HETATM   25  H   UNK     0       5.359  11.558  90.775  0.00  0.00     0.163 HD
BRANCH  24  26
HETATM   26  C   UNK     0       3.602  12.341  89.922  0.00  0.00     0.207 C 
BRANCH  26  27
HETATM   27  C   UNK     0       3.180  13.082  91.196  0.00  0.00     0.146 C 
HETATM   28  C   UNK     0       2.215  12.269  92.052  0.00  0.00     0.042 C 
BRANCH  27  29
HETATM   29  O   UNK     0       4.337  13.395  91.972  0.00  0.00    -0.393 OA
HETATM   30  H   UNK     0       4.235  12.987  92.849  0.00  0.00     0.210 HD
ENDBRANCH  27  29
ENDBRANCH  26  27
BRANCH  26  31
HETATM   31  C   UNK     0       4.185  13.300  88.889  0.00  0.00     0.266 C 
HETATM   32  O   UNK     0       4.371  14.495  89.115  0.00  0.00    -0.269 OA
HETATM   33  N   UNK     0       4.434  12.682  87.688  0.00  0.00    -0.236 N 
HETATM   34  H   UNK     0       4.211  11.725  87.441  0.00  0.00     0.197 HD
BRANCH  33  35
HETATM   35  O   UNK     0       4.937  13.505  86.671  0.00  0.00    -0.287 OA
HETATM   36  H   UNK     0       4.121  13.686  86.174  0.00  0.00     0.244 HD
ENDBRANCH  33  35
ENDBRANCH  26  31
ENDBRANCH  24  26
ENDBRANCH  19  22
ENDBRANCH  15  16
ENDBRANCH  11  14
ENDBRANCH   7   8
ENDBRANCH   2   7
TORSDOF 10
ENDMDL
