MODEL 1
REMARK VINA RESULT:      -7.2      0.000      0.000
REMARK  9 active torsions:
REMARK  status: ('A' for Active; 'I' for Inactive)
REMARK    1  A    between atoms: O_2  and  C_17 
REMARK    2  A    between atoms: N_5  and  C_10 
REMARK    3  A    between atoms: N_6  and  C_14 
REMARK       I    between atoms: N_6  and  C_23 
REMARK       I    between atoms: N_7  and  C_22 
REMARK    4  A    between atoms: C_10  and  C_13 
REMARK    5  A    between atoms: C_14  and  C_17 
REMARK    6  A    between atoms: C_14  and  C_22 
REMARK    7  A    between atoms: C_20  and  C_25 
REMARK    8  A    between atoms: C_23  and  C_24 
REMARK    9  A    between atoms: C_28  and  C_31 
ROOT
HETATM    1  O   UNL     1      16.708   3.378  93.761  1.00  0.00    -0.388 OA
HETATM    2  N   UNL     1      14.037   2.755  93.000  1.00  0.00     0.096 N 
HETATM    3  C   UNL     1      15.070   1.715  93.098  1.00  0.00     0.299 C 
HETATM    4  C   UNL     1      14.653   4.045  92.659  1.00  0.00     0.299 C 
HETATM    5  C   UNL     1      16.123   2.127  94.124  1.00  0.00     0.198 C 
HETATM    6  C   UNL     1      15.715   4.402  93.694  1.00  0.00     0.198 C 
ENDROOT
BRANCH   2   7
HETATM    7  C   UNL     1      13.023   2.387  92.014  1.00  0.00     0.311 C 
BRANCH   7   8
HETATM    8  C   UNL     1      12.095   3.512  91.705  1.00  0.00    -0.030 A 
HETATM    9  C   UNL     1      12.045   4.040  90.414  1.00  0.00     0.010 A 
HETATM   10  C   UNL     1      11.178   5.094  90.125  1.00  0.00     0.021 A 
HETATM   11  C   UNL     1      10.361   5.618  91.126  1.00  0.00     0.018 A 
HETATM   12  C   UNL     1      10.410   5.092  92.416  1.00  0.00     0.021 A 
HETATM   13  C   UNL     1      11.277   4.038  92.705  1.00  0.00     0.010 A 
BRANCH  11  14
HETATM   14  C   UNL     1       9.471   6.698  90.829  1.00  0.00    -0.061 C 
HETATM   15  C   UNL     1       8.723   7.605  90.578  1.00  0.00    -0.061 C 
BRANCH  15  16
HETATM   16  C   UNL     1       7.833   8.684  90.281  1.00  0.00     0.018 A 
HETATM   17  C   UNL     1       6.474   8.567  90.575  1.00  0.00     0.022 A 
HETATM   18  C   UNL     1       5.607   9.621  90.287  1.00  0.00     0.018 A 
HETATM   19  C   UNL     1       6.116  10.766  89.713  1.00  0.00     0.032 A 
HETATM   20  C   UNL     1       7.455  10.906  89.412  1.00  0.00     0.018 A 
HETATM   21  C   UNL     1       8.324   9.853  89.699  1.00  0.00     0.022 A 
BRANCH  19  22
HETATM   22  C   UNL     1       5.191  11.887  89.405  1.00  0.00     0.252 C 
HETATM   23  O   UNL     1       4.832  12.067  88.244  1.00  0.00    -0.268 OA
HETATM   24  N   UNL     1       4.776  12.649  90.489  1.00  0.00    -0.342 N 
HETATM   25  H   UNL     1       5.095  12.426  91.424  1.00  0.00     0.163 HD
BRANCH  24  26
HETATM   26  C   UNL     1       3.862  13.754  90.355  1.00  0.00     0.199 C 
BRANCH  26  27
HETATM   27  C   UNL     1       2.615  13.602  91.235  1.00  0.00     0.145 C 
HETATM   28  C   UNL     1       2.757  12.483  92.261  1.00  0.00     0.042 C 
BRANCH  27  29
HETATM   29  O   UNL     1       2.361  14.829  91.919  1.00  0.00    -0.393 OA
HETATM   30  H   UNL     1       2.136  15.505  91.259  1.00  0.00     0.210 HD
ENDBRANCH  27  29
ENDBRANCH  26  27
BRANCH  26  31
HETATM   31  C   UNL     1       4.624  15.032  90.689  1.00  0.00     0.220 C 
HETATM   32  O   UNL     1       4.709  15.482  91.830  1.00  0.00    -0.278 OA
HETATM   33  N   UNL     1       5.158  15.625  89.571  1.00  0.00    -0.271 NA
HETATM   34  H   UNL     1       5.032  15.331  88.609  1.00  0.00     0.127 HD
HETATM   35  H   UNL     1       4.750  16.806  88.931  1.00  0.00     0.127 HD
ENDBRANCH  26  31
ENDBRANCH  24  26
ENDBRANCH  19  22
ENDBRANCH  15  16
ENDBRANCH  11  14
ENDBRANCH   7   8
ENDBRANCH   2   7
TORSDOF 9
ENDMDL
