MODEL 1
REMARK VINA RESULT:      -6.5      0.000      0.000
REMARK  12 active torsions:
REMARK  status: ('A' for Active; 'I' for Inactive)
REMARK    1  A    between atoms: O_2  and  C_16 
REMARK    2  A    between atoms: N_5  and  C_9 
REMARK    3  A    between atoms: N_6  and  C_13 
REMARK       I    between atoms: N_6  and  C_22 
REMARK    4  A    between atoms: C_9  and  C_12 
REMARK    5  A    between atoms: C_13  and  C_16 
REMARK    6  A    between atoms: C_13  and  C_21 
REMARK    7  A    between atoms: C_19  and  C_24 
REMARK    8  A    between atoms: C_21  and  C_33 
REMARK    9  A    between atoms: C_22  and  C_23 
REMARK   10  A    between atoms: C_27  and  C_30 
REMARK   11  A    between atoms: C_33  and  C_34 
REMARK   12  A    between atoms: C_34  and  C_35 
ROOT
HETATM    1  O   UNL     1      16.270   4.369  94.026  1.00  0.00    -0.350 OA
HETATM    2  N   UNL     1      14.575   2.643  92.527  1.00  0.00     0.147 N 
HETATM    3  C   UNL     1      14.465   4.105  92.426  1.00  0.00     0.283 C 
HETATM    4  C   UNL     1      15.073   2.266  93.857  1.00  0.00     0.283 C 
HETATM    5  C   UNL     1      15.818   4.747  92.725  1.00  0.00     0.178 C 
HETATM    6  C   UNL     1      16.409   2.951  94.123  1.00  0.00     0.178 C 
ENDROOT
BRANCH   2   7
HETATM    7  C   UNL     1      13.287   2.007  92.254  1.00  0.00     0.277 C 
BRANCH   7   8
HETATM    8  C   UNL     1      12.171   2.992  92.182  1.00  0.00     0.011 A 
HETATM    9  C   UNL     1      11.495   3.192  90.978  1.00  0.00    -0.002 A 
HETATM   10  C   UNL     1      10.452   4.116  90.909  1.00  0.00     0.008 A 
HETATM   11  C   UNL     1      10.084   4.837  92.044  1.00  0.00     0.042 A 
HETATM   12  C   UNL     1      10.759   4.638  93.247  1.00  0.00     0.008 A 
HETATM   13  C   UNL     1      11.802   3.716  93.317  1.00  0.00    -0.002 A 
BRANCH  11  14
HETATM   14  C   UNL     1       9.013   5.783  91.974  1.00  0.00    -0.059 C 
HETATM   15  C   UNL     1       8.113   6.578  91.914  1.00  0.00    -0.059 C 
BRANCH  15  16
HETATM   16  C   UNL     1       7.042   7.523  91.843  1.00  0.00     0.042 A 
HETATM   17  C   UNL     1       7.110   8.585  90.941  1.00  0.00     0.008 A 
HETATM   18  C   UNL     1       6.064   9.505  90.870  1.00  0.00     0.005 A 
HETATM   19  C   UNL     1       4.975   9.342  91.700  1.00  0.00     0.056 A 
HETATM   20  C   UNL     1       4.884   8.300  92.599  1.00  0.00     0.005 A 
HETATM   21  C   UNL     1       5.930   7.380  92.672  1.00  0.00     0.008 A 
BRANCH  19  22
HETATM   22  C   UNL     1       3.862  10.324  91.625  1.00  0.00     0.254 C 
HETATM   23  O   UNL     1       2.722   9.922  91.403  1.00  0.00    -0.268 OA
HETATM   24  N   UNL     1       4.206  11.651  91.841  1.00  0.00    -0.335 N 
HETATM   25  HN  UNL     1       5.166  11.905  92.044  1.00  0.00     0.164 HD
BRANCH  24  26
HETATM   26  C   UNL     1       3.236  12.716  91.825  1.00  0.00     0.166 C 
BRANCH  26  27
HETATM   27  C   UNL     1       3.586  13.852  92.795  1.00  0.00     0.138 C 
HETATM   28  C   UNL     1       4.548  13.409  93.891  1.00  0.00     0.034 C 
BRANCH  27  29
HETATM   29  O   UNL     1       4.174  14.933  92.071  1.00  0.00    -0.383 OA
HETATM   30  H   UNL     1       4.549  15.560  92.712  1.00  0.00     0.210 HD
ENDBRANCH  27  29
ENDBRANCH  26  27
BRANCH  26  31
HETATM   31  C   UNL     1       3.126  13.224  90.392  1.00  0.00     0.181 C 
HETATM   32  O   UNL     1       2.503  14.240  90.087  1.00  0.00    -0.294 OA
BRANCH  31  33
HETATM   33  C   UNL     1       4.579  13.357  89.687  1.00  0.00     0.138 C 
BRANCH  33  34
HETATM   34  C   UNL     1       4.343  12.718  88.449  1.00  0.00     0.208 C 
HETATM   35  O   UNL     1       4.934  13.169  87.495  1.00  0.00    -0.289 OA
BRANCH  34  36
HETATM   36  C   UNL     1       3.786  11.500  88.172  1.00  0.00     0.194 C 
HETATM   37  O   UNL     1       2.477  11.165  87.807  1.00  0.00    -0.185 OA
ENDBRANCH  34  36
ENDBRANCH  33  34
ENDBRANCH  31  33
ENDBRANCH  26  31
ENDBRANCH  24  26
ENDBRANCH  19  22
ENDBRANCH  15  16
ENDBRANCH  11  14
ENDBRANCH   7   8
ENDBRANCH   2   7
TORSDOF 12
ENDMDL
MODEL 2
REMARK VINA RESULT:      -5.1      1.385      1.718
REMARK  12 active torsions:
REMARK  status: ('A' for Active; 'I' for Inactive)
REMARK    1  A    between atoms: O_2  and  C_16 
REMARK    2  A    between atoms: N_5  and  C_9 
REMARK    3  A    between atoms: N_6  and  C_13 
REMARK       I    between atoms: N_6  and  C_22 
REMARK    4  A    between atoms: C_9  and  C_12 
REMARK    5  A    between atoms: C_13  and  C_16 
REMARK    6  A    between atoms: C_13  and  C_21 
REMARK    7  A    between atoms: C_19  and  C_24 
REMARK    8  A    between atoms: C_21  and  C_33 
REMARK    9  A    between atoms: C_22  and  C_23 
REMARK   10  A    between atoms: C_27  and  C_30 
REMARK   11  A    between atoms: C_33  and  C_34 
REMARK   12  A    between atoms: C_34  and  C_35 
ROOT
HETATM    1  O   UNL     1      16.600   2.975  93.785  1.00  0.00    -0.350 OA
HETATM    2  N   UNL     1      13.900   2.962  92.883  1.00  0.00     0.147 N 
HETATM    3  C   UNL     1      14.662   1.716  93.044  1.00  0.00     0.283 C 
HETATM    4  C   UNL     1      14.811   4.072  92.569  1.00  0.00     0.283 C 
HETATM    5  C   UNL     1      15.726   1.896  94.124  1.00  0.00     0.178 C 
HETATM    6  C   UNL     1      15.871   4.197  93.658  1.00  0.00     0.178 C 
ENDROOT
BRANCH   2   7
HETATM    7  C   UNL     1      12.881   2.816  91.846  1.00  0.00     0.277 C 
BRANCH   7   8
HETATM    8  C   UNL     1      11.793   3.827  91.971  1.00  0.00     0.011 A 
HETATM    9  C   UNL     1      11.161   4.315  90.827  1.00  0.00    -0.002 A 
HETATM   10  C   UNL     1      10.144   5.263  90.944  1.00  0.00     0.008 A 
HETATM   11  C   UNL     1       9.759   5.720  92.204  1.00  0.00     0.042 A 
HETATM   12  C   UNL     1      10.389   5.232  93.347  1.00  0.00     0.008 A 
HETATM   13  C   UNL     1      11.407   4.285  93.231  1.00  0.00    -0.002 A 
BRANCH  11  14
HETATM   14  C   UNL     1       8.714   6.690  92.323  1.00  0.00    -0.059 C 
HETATM   15  C   UNL     1       7.837   7.506  92.423  1.00  0.00    -0.059 C 
BRANCH  15  16
HETATM   16  C   UNL     1       6.794   8.477  92.542  1.00  0.00     0.042 A 
HETATM   17  C   UNL     1       7.099   9.785  92.921  1.00  0.00     0.008 A 
HETATM   18  C   UNL     1       6.081  10.732  93.034  1.00  0.00     0.005 A 
HETATM   19  C   UNL     1       4.783  10.351  92.766  1.00  0.00     0.056 A 
HETATM   20  C   UNL     1       4.456   9.065  92.390  1.00  0.00     0.005 A 
HETATM   21  C   UNL     1       5.473   8.117  92.277  1.00  0.00     0.008 A 
BRANCH  19  22
HETATM   22  C   UNL     1       3.699  11.360  92.888  1.00  0.00     0.254 C 
HETATM   23  O   UNL     1       2.745  11.128  93.626  1.00  0.00    -0.268 OA
HETATM   24  N   UNL     1       3.870  12.527  92.157  1.00  0.00    -0.335 N 
HETATM   25  HN  UNL     1       4.698  12.660  91.587  1.00  0.00     0.164 HD
BRANCH  24  26
HETATM   26  C   UNL     1       2.919  13.609  92.190  1.00  0.00     0.166 C 
BRANCH  26  27
HETATM   27  C   UNL     1       2.926  14.365  93.524  1.00  0.00     0.138 C 
HETATM   28  C   UNL     1       4.337  14.632  94.037  1.00  0.00     0.034 C 
BRANCH  27  29
HETATM   29  O   UNL     1       2.246  15.611  93.371  1.00  0.00    -0.383 OA
HETATM   30  H   UNL     1       1.310  15.426  93.186  1.00  0.00     0.210 HD
ENDBRANCH  27  29
ENDBRANCH  26  27
BRANCH  26  31
HETATM   31  C   UNL     1       3.231  14.540  91.023  1.00  0.00     0.181 C 
HETATM   32  O   UNL     1       4.232  15.254  90.985  1.00  0.00    -0.294 OA
BRANCH  31  33
HETATM   33  C   UNL     1       3.176  13.764  89.601  1.00  0.00     0.138 C 
BRANCH  33  34
HETATM   34  C   UNL     1       4.552  13.627  89.311  1.00  0.00     0.208 C 
HETATM   35  O   UNL     1       5.275  14.498  89.736  1.00  0.00    -0.289 OA
BRANCH  34  36
HETATM   36  C   UNL     1       5.263  12.542  88.878  1.00  0.00     0.194 C 
HETATM   37  O   UNL     1       5.300  11.231  89.366  1.00  0.00    -0.185 OA
ENDBRANCH  34  36
ENDBRANCH  33  34
ENDBRANCH  31  33
ENDBRANCH  26  31
ENDBRANCH  24  26
ENDBRANCH  19  22
ENDBRANCH  15  16
ENDBRANCH  11  14
ENDBRANCH   7   8
ENDBRANCH   2   7
TORSDOF 12
ENDMDL
MODEL 3
REMARK VINA RESULT:      -4.5      2.514     12.652
REMARK  12 active torsions:
REMARK  status: ('A' for Active; 'I' for Inactive)
REMARK    1  A    between atoms: O_2  and  C_16 
REMARK    2  A    between atoms: N_5  and  C_9 
REMARK    3  A    between atoms: N_6  and  C_13 
REMARK       I    between atoms: N_6  and  C_22 
REMARK    4  A    between atoms: C_9  and  C_12 
REMARK    5  A    between atoms: C_13  and  C_16 
REMARK    6  A    between atoms: C_13  and  C_21 
REMARK    7  A    between atoms: C_19  and  C_24 
REMARK    8  A    between atoms: C_21  and  C_33 
REMARK    9  A    between atoms: C_22  and  C_23 
REMARK   10  A    between atoms: C_27  and  C_30 
REMARK   11  A    between atoms: C_33  and  C_34 
REMARK   12  A    between atoms: C_34  and  C_35 
ROOT
HETATM    1  O   UNL     1       3.053  14.831  94.074  1.00  0.00    -0.350 OA
HETATM    2  N   UNL     1       2.198  13.802  91.562  1.00  0.00     0.147 N 
HETATM    3  C   UNL     1       1.475  13.495  92.804  1.00  0.00     0.283 C 
HETATM    4  C   UNL     1       3.619  14.039  91.852  1.00  0.00     0.283 C 
HETATM    5  C   UNL     1       1.664  14.631  93.806  1.00  0.00     0.178 C 
HETATM    6  C   UNL     1       3.758  15.160  92.877  1.00  0.00     0.178 C 
ENDROOT
BRANCH   2   7
HETATM    7  C   UNL     1       2.039  12.722  90.590  1.00  0.00     0.277 C 
BRANCH   7   8
HETATM    8  C   UNL     1       3.074  11.660  90.746  1.00  0.00     0.011 A 
HETATM    9  C   UNL     1       4.126  11.574  89.834  1.00  0.00    -0.002 A 
HETATM   10  C   UNL     1       5.094  10.580  89.978  1.00  0.00     0.008 A 
HETATM   11  C   UNL     1       5.010   9.674  91.035  1.00  0.00     0.042 A 
HETATM   12  C   UNL     1       3.960   9.760  91.947  1.00  0.00     0.008 A 
HETATM   13  C   UNL     1       2.991  10.753  91.803  1.00  0.00    -0.002 A 
BRANCH  11  14
HETATM   14  C   UNL     1       6.004   8.656  91.184  1.00  0.00    -0.059 C 
HETATM   15  C   UNL     1       6.839   7.800  91.309  1.00  0.00    -0.059 C 
BRANCH  15  16
HETATM   16  C   UNL     1       7.833   6.783  91.457  1.00  0.00     0.042 A 
HETATM   17  C   UNL     1       7.974   5.799  90.479  1.00  0.00     0.008 A 
HETATM   18  C   UNL     1       8.946   4.808  90.623  1.00  0.00     0.005 A 
HETATM   19  C   UNL     1       9.754   4.825  91.740  1.00  0.00     0.056 A 
HETATM   20  C   UNL     1       9.635   5.787  92.721  1.00  0.00     0.005 A 
HETATM   21  C   UNL     1       8.663   6.778  92.578  1.00  0.00     0.008 A 
BRANCH  19  22
HETATM   22  C   UNL     1      10.788   3.768  91.894  1.00  0.00     0.254 C 
HETATM   23  O   UNL     1      10.441   2.630  92.201  1.00  0.00    -0.268 OA
HETATM   24  N   UNL     1      12.097   4.158  91.648  1.00  0.00    -0.335 N 
HETATM   25  HN  UNL     1      12.305   5.111  91.373  1.00  0.00     0.164 HD
BRANCH  24  26
HETATM   26  C   UNL     1      13.207   3.243  91.732  1.00  0.00     0.166 C 
BRANCH  26  27
HETATM   27  C   UNL     1      14.358   3.619  90.790  1.00  0.00     0.138 C 
HETATM   28  C   UNL     1      14.000   3.422  89.322  1.00  0.00     0.034 C 
BRANCH  27  29
HETATM   29  O   UNL     1      14.720   4.984  91.000  1.00  0.00    -0.383 OA
HETATM   30  H   UNL     1      14.741   5.150  91.958  1.00  0.00     0.210 HD
ENDBRANCH  27  29
ENDBRANCH  26  27
BRANCH  26  31
HETATM   31  C   UNL     1      13.669   3.203  93.185  1.00  0.00     0.181 C 
HETATM   32  O   UNL     1      12.908   2.977  94.123  1.00  0.00    -0.294 OA
BRANCH  31  33
HETATM   33  C   UNL     1      14.940   2.218  93.386  1.00  0.00     0.138 C 
BRANCH  33  34
HETATM   34  C   UNL     1      15.952   3.143  93.724  1.00  0.00     0.208 C 
HETATM   35  O   UNL     1      17.088   2.801  93.484  1.00  0.00    -0.289 OA
BRANCH  34  36
HETATM   36  C   UNL     1      15.874   4.477  94.014  1.00  0.00     0.194 C 
HETATM   37  O   UNL     1      16.324   5.588  93.291  1.00  0.00    -0.185 OA
ENDBRANCH  34  36
ENDBRANCH  33  34
ENDBRANCH  31  33
ENDBRANCH  26  31
ENDBRANCH  24  26
ENDBRANCH  19  22
ENDBRANCH  15  16
ENDBRANCH  11  14
ENDBRANCH   7   8
ENDBRANCH   2   7
TORSDOF 12
ENDMDL
MODEL 4
REMARK VINA RESULT:      -4.4      2.911     12.234
REMARK  12 active torsions:
REMARK  status: ('A' for Active; 'I' for Inactive)
REMARK    1  A    between atoms: O_2  and  C_16 
REMARK    2  A    between atoms: N_5  and  C_9 
REMARK    3  A    between atoms: N_6  and  C_13 
REMARK       I    between atoms: N_6  and  C_22 
REMARK    4  A    between atoms: C_9  and  C_12 
REMARK    5  A    between atoms: C_13  and  C_16 
REMARK    6  A    between atoms: C_13  and  C_21 
REMARK    7  A    between atoms: C_19  and  C_24 
REMARK    8  A    between atoms: C_21  and  C_33 
REMARK    9  A    between atoms: C_22  and  C_23 
REMARK   10  A    between atoms: C_27  and  C_30 
REMARK   11  A    between atoms: C_33  and  C_34 
REMARK   12  A    between atoms: C_34  and  C_35 
ROOT
HETATM    1  O   UNL     1       2.515  14.258  94.007  1.00  0.00    -0.350 OA
HETATM    2  N   UNL     1       2.338  14.536  91.180  1.00  0.00     0.147 N 
HETATM    3  C   UNL     1       1.622  13.469  91.893  1.00  0.00     0.283 C 
HETATM    4  C   UNL     1       3.558  14.901  91.913  1.00  0.00     0.283 C 
HETATM    5  C   UNL     1       1.311  13.918  93.318  1.00  0.00     0.178 C 
HETATM    6  C   UNL     1       3.201  15.316  93.337  1.00  0.00     0.178 C 
ENDROOT
BRANCH   2   7
HETATM    7  C   UNL     1       2.656  14.123  89.814  1.00  0.00     0.277 C 
BRANCH   7   8
HETATM    8  C   UNL     1       3.638  13.001  89.775  1.00  0.00     0.011 A 
HETATM    9  C   UNL     1       4.940  13.231  89.329  1.00  0.00    -0.002 A 
HETATM   10  C   UNL     1       5.859  12.182  89.289  1.00  0.00     0.008 A 
HETATM   11  C   UNL     1       5.475  10.905  89.697  1.00  0.00     0.042 A 
HETATM   12  C   UNL     1       4.175  10.675  90.143  1.00  0.00     0.008 A 
HETATM   13  C   UNL     1       3.256  11.723  90.182  1.00  0.00    -0.002 A 
BRANCH  11  14
HETATM   14  C   UNL     1       6.418   9.830  89.659  1.00  0.00    -0.059 C 
HETATM   15  C   UNL     1       7.211   8.926  89.627  1.00  0.00    -0.059 C 
BRANCH  15  16
HETATM   16  C   UNL     1       8.154   7.852  89.589  1.00  0.00     0.042 A 
HETATM   17  C   UNL     1       9.462   8.088  89.167  1.00  0.00     0.008 A 
HETATM   18  C   UNL     1      10.382   7.040  89.133  1.00  0.00     0.005 A 
HETATM   19  C   UNL     1       9.974   5.781  89.522  1.00  0.00     0.056 A 
HETATM   20  C   UNL     1       8.686   5.522  89.943  1.00  0.00     0.005 A 
HETATM   21  C   UNL     1       7.765   6.569  89.977  1.00  0.00     0.008 A 
BRANCH  19  22
HETATM   22  C   UNL     1      10.954   4.665  89.484  1.00  0.00     0.254 C 
HETATM   23  O   UNL     1      11.098   4.029  88.442  1.00  0.00    -0.268 OA
HETATM   24  N   UNL     1      11.665   4.439  90.654  1.00  0.00    -0.335 N 
HETATM   25  HN  UNL     1      11.510   5.022  91.469  1.00  0.00     0.164 HD
BRANCH  24  26
HETATM   26  C   UNL     1      12.667   3.410  90.767  1.00  0.00     0.166 C 
BRANCH  26  27
HETATM   27  C   UNL     1      14.078   3.975  90.970  1.00  0.00     0.138 C 
HETATM   28  C   UNL     1      15.152   3.111  90.319  1.00  0.00     0.034 C 
BRANCH  27  29
HETATM   29  O   UNL     1      14.148   5.292  90.423  1.00  0.00    -0.383 OA
HETATM   30  H   UNL     1      15.039   5.644  90.588  1.00  0.00     0.210 HD
ENDBRANCH  27  29
ENDBRANCH  26  27
BRANCH  26  31
HETATM   31  C   UNL     1      12.266   2.494  91.918  1.00  0.00     0.181 C 
HETATM   32  O   UNL     1      12.563   1.301  91.960  1.00  0.00    -0.294 OA
BRANCH  31  33
HETATM   33  C   UNL     1      12.684   3.115  93.356  1.00  0.00     0.138 C 
BRANCH  33  34
HETATM   34  C   UNL     1      11.523   3.849  93.685  1.00  0.00     0.208 C 
HETATM   35  O   UNL     1      11.704   4.962  94.124  1.00  0.00    -0.289 OA
BRANCH  34  36
HETATM   36  C   UNL     1      10.216   3.646  93.337  1.00  0.00     0.194 C 
HETATM   37  O   UNL     1       9.271   4.535  92.812  1.00  0.00    -0.185 OA
ENDBRANCH  34  36
ENDBRANCH  33  34
ENDBRANCH  31  33
ENDBRANCH  26  31
ENDBRANCH  24  26
ENDBRANCH  19  22
ENDBRANCH  15  16
ENDBRANCH  11  14
ENDBRANCH   7   8
ENDBRANCH   2   7
TORSDOF 12
ENDMDL
