MODEL 1
REMARK VINA RESULT:      -7.0      0.000      0.000
REMARK  11 active torsions:
REMARK  status: ('A' for Active; 'I' for Inactive)
REMARK    1  A    between atoms: O_2  and  C_18 
REMARK    2  A    between atoms: O_5  and  P_8 
REMARK    3  A    between atoms: N_6  and  C_11 
REMARK    4  A    between atoms: N_7  and  C_15 
REMARK       I    between atoms: N_7  and  C_24 
REMARK    5  A    between atoms: P_8  and  C_23 
REMARK    6  A    between atoms: C_11  and  C_14 
REMARK    7  A    between atoms: C_15  and  C_18 
REMARK    8  A    between atoms: C_15  and  C_23 
REMARK    9  A    between atoms: C_21  and  C_26 
REMARK   10  A    between atoms: C_24  and  C_25 
REMARK   11  A    between atoms: C_29  and  C_32 
ROOT
HETATM    1  O   UNL     1      16.201   4.152  94.078  1.00  0.00     0.000 OA
HETATM    2  N   UNL     1      14.404   2.562  92.547  1.00  0.00     0.000 N 
HETATM    3  C   UNL     1      14.364   4.030  92.498  1.00  0.00     0.000 C 
HETATM    4  C   UNL     1      14.902   2.116  93.856  1.00  0.00     0.000 C 
HETATM    5  C   UNL     1      15.749   4.596  92.797  1.00  0.00     0.000 C 
HETATM    6  C   UNL     1      16.273   2.727  94.124  1.00  0.00     0.000 C 
ENDROOT
BRANCH   2   7
HETATM    7  C   UNL     1      13.084   1.998  92.273  1.00  0.00     0.000 C 
BRANCH   7   8
HETATM    8  C   UNL     1      12.076   3.046  91.942  1.00  0.00     0.000 A 
HETATM    9  C   UNL     1      11.531   3.833  92.958  1.00  0.00     0.000 A 
HETATM   10  C   UNL     1      10.586   4.812  92.650  1.00  0.00     0.000 A 
HETATM   11  C   UNL     1      10.190   5.005  91.327  1.00  0.00     0.000 A 
HETATM   12  C   UNL     1      10.734   4.220  90.313  1.00  0.00     0.000 A 
HETATM   13  C   UNL     1      11.678   3.240  90.620  1.00  0.00     0.000 A 
BRANCH  11  14
HETATM   14  C   UNL     1       9.222   6.011  91.011  1.00  0.00     0.000 C 
HETATM   15  C   UNL     1       8.409   6.856  90.746  1.00  0.00     0.000 C 
BRANCH  15  16
HETATM   16  C   UNL     1       7.442   7.860  90.430  1.00  0.00     0.000 A 
HETATM   17  C   UNL     1       6.483   7.619  89.446  1.00  0.00     0.000 A 
HETATM   18  C   UNL     1       5.538   8.599  89.141  1.00  0.00     0.000 A 
HETATM   19  C   UNL     1       5.572   9.795  89.826  1.00  0.00     0.000 A 
HETATM   20  C   UNL     1       6.510  10.058  90.802  1.00  0.00     0.000 A 
HETATM   21  C   UNL     1       7.456   9.079  91.109  1.00  0.00     0.000 A 
BRANCH  19  22
HETATM   22  C   UNL     1       4.566  10.839  89.499  1.00  0.00     0.000 C 
HETATM   23  O   UNL     1       3.646  10.565  88.732  1.00  0.00     0.000 OA
HETATM   24  N   UNL     1       4.739  12.067  90.122  1.00  0.00     0.000 N 
HETATM   25  HN  UNL     1       5.510  12.212  90.763  1.00  0.00     0.000 HD
BRANCH  24  26
HETATM   26  C   UNL     1       3.834  13.170  89.925  1.00  0.00     0.000 C 
BRANCH  26  27
HETATM   27  C   UNL     1       3.179  13.640  91.230  1.00  0.00     0.000 C 
HETATM   28  C   UNL     1       2.434  12.519  91.946  1.00  0.00     0.000 C 
BRANCH  27  29
HETATM   29  O   UNL     1       4.178  14.165  92.104  1.00  0.00     0.000 OA
HETATM   30  H   UNL     1       3.864  15.017  92.450  1.00  0.00     0.000 HD
ENDBRANCH  27  29
ENDBRANCH  26  27
BRANCH  26  31
HETATM   31  C   UNL     1       4.614  14.299  89.259  1.00  0.00     0.000 C 
HETATM   32  O   UNL     1       4.584  15.461  89.660  1.00  0.00     0.000 OA
BRANCH  31  33
HETATM   33  P   UNL     1       5.307  13.869  88.154  1.00  0.00     0.000 P 
HETATM   34  H   UNL     1       5.792  14.983  87.498  1.00  0.00     0.000 HD
BRANCH  33  35
HETATM   35  O   UNL     1       4.573  13.112  87.229  1.00  0.00     0.000 OA
HETATM   36  H   UNL     1       4.596  13.707  86.460  1.00  0.00     0.000 HD
ENDBRANCH  33  35
ENDBRANCH  31  33
ENDBRANCH  26  31
ENDBRANCH  24  26
ENDBRANCH  19  22
ENDBRANCH  15  16
ENDBRANCH  11  14
ENDBRANCH   7   8
ENDBRANCH   2   7
TORSDOF 11
ENDMDL
