MODEL 1
REMARK VINA RESULT:      -7.1      0.000      0.000
REMARK  10 active torsions:
REMARK  status: ('A' for Active; 'I' for Inactive)
REMARK    1  A    between atoms: O_2  and  C_16 
REMARK    2  A    between atoms: N_5  and  C_9 
REMARK    3  A    between atoms: N_6  and  C_13 
REMARK       I    between atoms: N_6  and  C_22 
REMARK    4  A    between atoms: C_9  and  C_12 
REMARK    5  A    between atoms: C_13  and  C_16 
REMARK    6  A    between atoms: C_13  and  C_21 
REMARK    7  A    between atoms: C_19  and  C_24 
REMARK    8  A    between atoms: C_22  and  C_23 
REMARK    9  A    between atoms: C_27  and  C_30 
REMARK   10  A    between atoms: N_33  and  S_34 
ROOT
HETATM    1  C   UNL     1       5.860  10.997  89.579  1.00  0.00     0.056 A 
HETATM    2  C   UNL     1       7.215  11.153  89.377  1.00  0.00     0.005 A 
HETATM    3  C   UNL     1       5.318   9.827  90.068  1.00  0.00     0.005 A 
HETATM    4  C   UNL     1       7.545   8.896  90.172  1.00  0.00     0.042 A 
HETATM    5  C   UNL     1       8.068  10.091  89.676  1.00  0.00     0.008 A 
HETATM    6  C   UNL     1       6.170   8.764  90.368  1.00  0.00     0.008 A 
ENDROOT
BRANCH   1   7
HETATM    7  C   UNL     1       4.952  12.130  89.262  1.00  0.00     0.254 C 
HETATM    8  O   UNL     1       4.875  12.531  88.103  1.00  0.00    -0.268 OA
HETATM    9  N   UNL     1       4.225  12.643  90.327  1.00  0.00    -0.337 N 
HETATM   10  HN  UNL     1       4.322  12.245  91.254  1.00  0.00     0.164 HD
BRANCH   9  11
HETATM   11  C   UNL     1       3.286  13.725  90.176  1.00  0.00     0.172 C 
BRANCH  11  12
HETATM   12  C   UNL     1       2.022  13.538  91.025  1.00  0.00     0.136 C 
HETATM   13  C   UNL     1       2.198  12.479  92.107  1.00  0.00     0.034 C 
BRANCH  12  14
HETATM   14  O   UNL     1       1.673  14.777  91.641  1.00  0.00    -0.383 OA
HETATM   15  H   UNL     1       1.317  15.368  90.957  1.00  0.00     0.210 HD
ENDBRANCH  12  14
ENDBRANCH  11  12
BRANCH  11  16
HETATM   16  C   UNL     1       4.006  15.021  90.533  1.00  0.00     0.398 A 
HETATM   17  O   UNL     1       5.129  15.300  90.115  1.00  0.00    -0.136 OA
HETATM   18  N   UNL     1       5.020  15.625  91.596  1.00  0.00     0.142 N 
HETATM   19  HN  UNL     1       5.940  15.932  91.449  1.00  0.00     0.338 HD
BRANCH  18  20
HETATM   20  S   UNL     1       4.305  15.330  92.752  1.00  0.00     0.076 SA
HETATM   21  H   UNL     1       4.326  14.199  93.115  1.00  0.00     0.136 HD
ENDBRANCH  18  20
ENDBRANCH  11  16
ENDBRANCH   9  11
ENDBRANCH   1   7
BRANCH   4  22
HETATM   22  C   UNL     1       8.419   7.806  90.476  1.00  0.00    -0.059 C 
HETATM   23  C   UNL     1       9.153   6.889  90.731  1.00  0.00    -0.059 C 
BRANCH  23  24
HETATM   24  C   UNL     1      10.028   5.799  91.035  1.00  0.00     0.042 A 
HETATM   25  C   UNL     1      10.721   5.156  90.009  1.00  0.00     0.008 A 
HETATM   26  C   UNL     1      11.572   4.091  90.305  1.00  0.00    -0.002 A 
HETATM   27  C   UNL     1      11.732   3.672  91.626  1.00  0.00     0.011 A 
HETATM   28  C   UNL     1      11.038   4.317  92.651  1.00  0.00    -0.002 A 
HETATM   29  C   UNL     1      10.187   5.381  92.354  1.00  0.00     0.008 A 
BRANCH  27  30
HETATM   30  C   UNL     1      12.644   2.535  91.941  1.00  0.00     0.277 C 
BRANCH  30  31
HETATM   31  N   UNL     1      13.690   2.908  92.892  1.00  0.00     0.147 N 
HETATM   32  C   UNL     1      14.596   1.777  93.137  1.00  0.00     0.283 C 
HETATM   33  C   UNL     1      15.685   2.193  94.123  1.00  0.00     0.178 C 
HETATM   34  O   UNL     1      16.412   3.315  93.618  1.00  0.00    -0.350 OA
HETATM   35  C   UNL     1      15.542   4.428  93.407  1.00  0.00     0.178 C 
HETATM   36  C   UNL     1      14.450   4.067  92.405  1.00  0.00     0.283 C 
ENDBRANCH  30  31
ENDBRANCH  27  30
ENDBRANCH  23  24
ENDBRANCH   4  22
TORSDOF 10
ENDMDL
