MODEL 1
REMARK VINA RESULT:      -6.2      0.000      0.000
REMARK  12 active torsions:
REMARK  status: ('A' for Active; 'I' for Inactive)
REMARK    1  A    between atoms: O_2  and  C_16 
REMARK    2  A    between atoms: N_5  and  C_9 
REMARK    3  A    between atoms: N_6  and  C_13 
REMARK       I    between atoms: N_6  and  C_22 
REMARK    4  A    between atoms: C_9  and  C_12 
REMARK    5  A    between atoms: C_13  and  C_16 
REMARK    6  A    between atoms: C_13  and  C_21 
REMARK    7  A    between atoms: C_19  and  C_24 
REMARK    8  A    between atoms: C_21  and  C_33 
REMARK    9  A    between atoms: C_22  and  C_23 
REMARK   10  A    between atoms: C_27  and  C_30 
REMARK   11  A    between atoms: C_33  and  C_34 
REMARK   12  A    between atoms: C_34  and  C_35 
ROOT
HETATM    1  O   UNL     1      16.593   3.265  94.044  1.00  0.00    -0.350 OA
HETATM    2  N   UNL     1      14.145   3.093  92.601  1.00  0.00     0.147 N 
HETATM    3  C   UNL     1      14.984   1.909  92.835  1.00  0.00     0.283 C 
HETATM    4  C   UNL     1      14.981   4.301  92.556  1.00  0.00     0.283 C 
HETATM    5  C   UNL     1      15.785   2.089  94.122  1.00  0.00     0.178 C 
HETATM    6  C   UNL     1      15.783   4.425  93.848  1.00  0.00     0.178 C 
ENDROOT
BRANCH   2   7
HETATM    7  C   UNL     1      13.376   2.947  91.367  1.00  0.00     0.277 C 
BRANCH   7   8
HETATM    8  C   UNL     1      12.179   3.836  91.335  1.00  0.00     0.011 A 
HETATM    9  C   UNL     1      11.403   3.999  92.483  1.00  0.00    -0.002 A 
HETATM   10  C   UNL     1      10.282   4.828  92.453  1.00  0.00     0.008 A 
HETATM   11  C   UNL     1       9.939   5.494  91.277  1.00  0.00     0.042 A 
HETATM   12  C   UNL     1      10.713   5.332  90.130  1.00  0.00     0.008 A 
HETATM   13  C   UNL     1      11.834   4.502  90.159  1.00  0.00    -0.002 A 
BRANCH  11  14
HETATM   14  C   UNL     1       8.789   6.346  91.248  1.00  0.00    -0.059 C 
HETATM   15  C   UNL     1       7.824   7.063  91.224  1.00  0.00    -0.059 C 
BRANCH  15  16
HETATM   16  C   UNL     1       6.676   7.915  91.195  1.00  0.00     0.042 A 
HETATM   17  C   UNL     1       5.581   7.580  90.399  1.00  0.00     0.008 A 
HETATM   18  C   UNL     1       4.460   8.410  90.372  1.00  0.00     0.005 A 
HETATM   19  C   UNL     1       4.460   9.555  91.142  1.00  0.00     0.056 A 
HETATM   20  C   UNL     1       5.530   9.908  91.937  1.00  0.00     0.005 A 
HETATM   21  C   UNL     1       6.652   9.078  91.964  1.00  0.00     0.008 A 
BRANCH  19  22
HETATM   22  C   UNL     1       3.266  10.439  91.112  1.00  0.00     0.254 C 
HETATM   23  O   UNL     1       2.187   9.978  90.751  1.00  0.00    -0.268 OA
HETATM   24  N   UNL     1       3.469  11.748  91.529  1.00  0.00    -0.335 N 
HETATM   25  HN  UNL     1       4.385  12.051  91.838  1.00  0.00     0.164 HD
BRANCH  24  26
HETATM   26  C   UNL     1       2.406  12.719  91.580  1.00  0.00     0.166 C 
BRANCH  26  27
HETATM   27  C   UNL     1       2.208  13.309  92.982  1.00  0.00     0.138 C 
HETATM   28  C   UNL     1       3.518  13.445  93.749  1.00  0.00     0.034 C 
BRANCH  27  29
HETATM   29  O   UNL     1       1.598  14.595  92.876  1.00  0.00    -0.383 OA
HETATM   30  H   UNL     1       2.070  15.102  92.194  1.00  0.00     0.210 HD
ENDBRANCH  27  29
ENDBRANCH  26  27
BRANCH  26  31
HETATM   31  C   UNL     1       2.720  13.807  90.559  1.00  0.00     0.181 C 
HETATM   32  O   UNL     1       1.926  14.698  90.264  1.00  0.00    -0.294 OA
BRANCH  31  33
HETATM   33  C   UNL     1       4.128  14.545  90.880  1.00  0.00     0.138 C 
BRANCH  33  34
HETATM   34  C   UNL     1       4.744  14.522  89.609  1.00  0.00     0.208 C 
HETATM   35  O   UNL     1       5.261  15.555  89.249  1.00  0.00    -0.289 OA
BRANCH  34  36
HETATM   36  C   UNL     1       5.117  13.466  88.823  1.00  0.00     0.194 C 
HETATM   37  O   UNL     1       5.187  13.357  87.430  1.00  0.00    -0.185 OA
ENDBRANCH  34  36
ENDBRANCH  33  34
ENDBRANCH  31  33
ENDBRANCH  26  31
ENDBRANCH  24  26
ENDBRANCH  19  22
ENDBRANCH  15  16
ENDBRANCH  11  14
ENDBRANCH   7   8
ENDBRANCH   2   7
TORSDOF 12
ENDMDL
