MODEL 1
REMARK VINA RESULT:      -7.0      0.000      0.000
REMARK  10 active torsions:
REMARK  status: ('A' for Active; 'I' for Inactive)
REMARK    1  A    between atoms: O_2  and  C_16 
REMARK    2  A    between atoms: N_5  and  C_9 
REMARK    3  A    between atoms: N_6  and  C_13 
REMARK       I    between atoms: N_6  and  C_22 
REMARK    4  A    between atoms: C_9  and  C_12 
REMARK    5  A    between atoms: C_13  and  C_16 
REMARK    6  A    between atoms: C_13  and  C_21 
REMARK    7  A    between atoms: C_19  and  C_24 
REMARK    8  A    between atoms: C_22  and  C_23 
REMARK    9  A    between atoms: C_27  and  C_30 
REMARK   10  A    between atoms: N_33  and  S_34 
ROOT
HETATM    1  C   UNL     1       5.798  11.044  89.556  1.00  0.00     0.056 A 
HETATM    2  C   UNL     1       5.262   9.886  90.079  1.00  0.00     0.005 A 
HETATM    3  C   UNL     1       7.148  11.185  89.310  1.00  0.00     0.005 A 
HETATM    4  C   UNL     1       7.482   8.938  90.131  1.00  0.00     0.042 A 
HETATM    5  C   UNL     1       6.113   8.821  90.370  1.00  0.00     0.008 A 
HETATM    6  C   UNL     1       8.000  10.120  89.601  1.00  0.00     0.008 A 
ENDROOT
BRANCH   1   7
HETATM    7  C   UNL     1       4.890  12.179  89.245  1.00  0.00     0.254 C 
HETATM    8  O   UNL     1       4.787  12.562  88.082  1.00  0.00    -0.268 OA
HETATM    9  N   UNL     1       4.194  12.714  90.320  1.00  0.00    -0.337 N 
HETATM   10  HN  UNL     1       4.311  12.328  91.249  1.00  0.00     0.164 HD
BRANCH   9  11
HETATM   11  C   UNL     1       3.259  13.800  90.175  1.00  0.00     0.172 C 
BRANCH  11  12
HETATM   12  C   UNL     1       1.943  13.555  90.924  1.00  0.00     0.136 C 
HETATM   13  C   UNL     1       2.088  12.521  92.035  1.00  0.00     0.034 C 
BRANCH  12  14
HETATM   14  O   UNL     1       1.480  14.781  91.489  1.00  0.00    -0.383 OA
HETATM   15  H   UNL     1       0.678  14.594  92.006  1.00  0.00     0.210 HD
ENDBRANCH  12  14
ENDBRANCH  11  12
BRANCH  11  16
HETATM   16  C   UNL     1       3.945  15.073  90.661  1.00  0.00     0.398 A 
HETATM   17  O   UNL     1       5.065  15.415  90.286  1.00  0.00    -0.136 OA
HETATM   18  N   UNL     1       4.932  15.597  91.789  1.00  0.00     0.142 N 
HETATM   19  HN  UNL     1       5.846  15.937  91.684  1.00  0.00     0.338 HD
BRANCH  18  20
HETATM   20  S   UNL     1       4.211  15.179  92.902  1.00  0.00     0.076 SA
HETATM   21  H   UNL     1       4.604  15.552  93.960  1.00  0.00     0.136 HD
ENDBRANCH  18  20
ENDBRANCH  11  16
ENDBRANCH   9  11
ENDBRANCH   1   7
BRANCH   4  22
HETATM   22  C   UNL     1       8.355   7.846  90.431  1.00  0.00    -0.059 C 
HETATM   23  C   UNL     1       9.090   6.929  90.684  1.00  0.00    -0.059 C 
BRANCH  23  24
HETATM   24  C   UNL     1       9.964   5.837  90.986  1.00  0.00     0.042 A 
HETATM   25  C   UNL     1      10.228   5.503  92.314  1.00  0.00     0.008 A 
HETATM   26  C   UNL     1      11.082   4.440  92.608  1.00  0.00    -0.002 A 
HETATM   27  C   UNL     1      11.670   3.711  91.574  1.00  0.00     0.011 A 
HETATM   28  C   UNL     1      11.405   4.046  90.247  1.00  0.00    -0.002 A 
HETATM   29  C   UNL     1      10.551   5.110  89.953  1.00  0.00     0.008 A 
BRANCH  27  30
HETATM   30  C   UNL     1      12.581   2.574  91.890  1.00  0.00     0.277 C 
BRANCH  30  31
HETATM   31  N   UNL     1      13.622   2.943  92.847  1.00  0.00     0.147 N 
HETATM   32  C   UNL     1      14.497   1.798  93.132  1.00  0.00     0.283 C 
HETATM   33  C   UNL     1      15.582   2.210  94.124  1.00  0.00     0.178 C 
HETATM   34  O   UNL     1      16.343   3.301  93.603  1.00  0.00    -0.350 OA
HETATM   35  C   UNL     1      15.505   4.430  93.352  1.00  0.00     0.178 C 
HETATM   36  C   UNL     1      14.418   4.071  92.343  1.00  0.00     0.283 C 
ENDBRANCH  30  31
ENDBRANCH  27  30
ENDBRANCH  23  24
ENDBRANCH   4  22
TORSDOF 10
ENDMDL
MODEL 2
REMARK VINA RESULT:      -6.9      1.155      1.254
REMARK  10 active torsions:
REMARK  status: ('A' for Active; 'I' for Inactive)
REMARK    1  A    between atoms: O_2  and  C_16 
REMARK    2  A    between atoms: N_5  and  C_9 
REMARK    3  A    between atoms: N_6  and  C_13 
REMARK       I    between atoms: N_6  and  C_22 
REMARK    4  A    between atoms: C_9  and  C_12 
REMARK    5  A    between atoms: C_13  and  C_16 
REMARK    6  A    between atoms: C_13  and  C_21 
REMARK    7  A    between atoms: C_19  and  C_24 
REMARK    8  A    between atoms: C_22  and  C_23 
REMARK    9  A    between atoms: C_27  and  C_30 
REMARK   10  A    between atoms: N_33  and  S_34 
ROOT
HETATM    1  C   UNL     1       5.205  10.084  89.598  1.00  0.00     0.056 A 
HETATM    2  C   UNL     1       5.350   9.026  88.725  1.00  0.00     0.005 A 
HETATM    3  C   UNL     1       5.980  10.215  90.732  1.00  0.00     0.005 A 
HETATM    4  C   UNL     1       7.109   8.163  90.138  1.00  0.00     0.042 A 
HETATM    5  C   UNL     1       6.312   8.054  88.998  1.00  0.00     0.008 A 
HETATM    6  C   UNL     1       6.943   9.243  91.005  1.00  0.00     0.008 A 
ENDROOT
BRANCH   1   7
HETATM    7  C   UNL     1       4.181  11.121  89.306  1.00  0.00     0.254 C 
HETATM    8  O   UNL     1       3.539  11.051  88.261  1.00  0.00    -0.268 OA
HETATM    9  N   UNL     1       4.012  12.098  90.277  1.00  0.00    -0.337 N 
HETATM   10  HN  UNL     1       4.562  12.077  91.127  1.00  0.00     0.164 HD
BRANCH   9  11
HETATM   11  C   UNL     1       3.042  13.156  90.151  1.00  0.00     0.172 C 
BRANCH  11  12
HETATM   12  C   UNL     1       2.306  13.447  91.465  1.00  0.00     0.136 C 
HETATM   13  C   UNL     1       1.197  14.479  91.297  1.00  0.00     0.034 C 
BRANCH  12  14
HETATM   14  O   UNL     1       1.741  12.238  91.972  1.00  0.00    -0.383 OA
HETATM   15  H   UNL     1       1.765  11.570  91.266  1.00  0.00     0.210 HD
ENDBRANCH  12  14
ENDBRANCH  11  12
BRANCH  11  16
HETATM   16  C   UNL     1       3.768  14.395  89.637  1.00  0.00     0.398 A 
HETATM   17  O   UNL     1       4.669  14.345  88.801  1.00  0.00    -0.136 OA
HETATM   18  N   UNL     1       5.045  15.295  89.927  1.00  0.00     0.142 N 
HETATM   19  HN  UNL     1       5.844  15.409  89.370  1.00  0.00     0.338 HD
BRANCH  18  20
HETATM   20  S   UNL     1       4.775  15.612  91.253  1.00  0.00     0.076 SA
HETATM   21  H   UNL     1       3.647  15.491  91.609  1.00  0.00     0.136 HD
ENDBRANCH  18  20
ENDBRANCH  11  16
ENDBRANCH   9  11
ENDBRANCH   1   7
BRANCH   4  22
HETATM   22  C   UNL     1       8.093   7.165  90.420  1.00  0.00    -0.059 C 
HETATM   23  C   UNL     1       8.921   6.325  90.656  1.00  0.00    -0.059 C 
BRANCH  23  24
HETATM   24  C   UNL     1       9.906   5.326  90.937  1.00  0.00     0.042 A 
HETATM   25  C   UNL     1       9.784   4.529  92.074  1.00  0.00     0.008 A 
HETATM   26  C   UNL     1      10.745   3.556  92.349  1.00  0.00    -0.002 A 
HETATM   27  C   UNL     1      11.826   3.381  91.485  1.00  0.00     0.011 A 
HETATM   28  C   UNL     1      11.946   4.179  90.347  1.00  0.00    -0.002 A 
HETATM   29  C   UNL     1      10.985   5.152  90.073  1.00  0.00     0.008 A 
BRANCH  27  30
HETATM   30  C   UNL     1      12.852   2.339  91.779  1.00  0.00     0.277 C 
BRANCH  30  31
HETATM   31  N   UNL     1      13.798   2.764  92.808  1.00  0.00     0.147 N 
HETATM   32  C   UNL     1      14.803   1.720  93.054  1.00  0.00     0.283 C 
HETATM   33  C   UNL     1      15.786   2.191  94.124  1.00  0.00     0.178 C 
HETATM   34  O   UNL     1      16.418   3.406  93.718  1.00  0.00    -0.350 OA
HETATM   35  C   UNL     1      15.450   4.435  93.507  1.00  0.00     0.178 C 
HETATM   36  C   UNL     1      14.460   4.019  92.424  1.00  0.00     0.283 C 
ENDBRANCH  30  31
ENDBRANCH  27  30
ENDBRANCH  23  24
ENDBRANCH   4  22
TORSDOF 10
ENDMDL
MODEL 3
REMARK VINA RESULT:      -6.8      1.463      2.179
REMARK  10 active torsions:
REMARK  status: ('A' for Active; 'I' for Inactive)
REMARK    1  A    between atoms: O_2  and  C_16 
REMARK    2  A    between atoms: N_5  and  C_9 
REMARK    3  A    between atoms: N_6  and  C_13 
REMARK       I    between atoms: N_6  and  C_22 
REMARK    4  A    between atoms: C_9  and  C_12 
REMARK    5  A    between atoms: C_13  and  C_16 
REMARK    6  A    between atoms: C_13  and  C_21 
REMARK    7  A    between atoms: C_19  and  C_24 
REMARK    8  A    between atoms: C_22  and  C_23 
REMARK    9  A    between atoms: C_27  and  C_30 
REMARK   10  A    between atoms: N_33  and  S_34 
ROOT
HETATM    1  C   UNL     1       5.246  10.685  90.901  1.00  0.00     0.056 A 
HETATM    2  C   UNL     1       5.591   9.976  89.769  1.00  0.00     0.005 A 
HETATM    3  C   UNL     1       5.814  10.429  92.131  1.00  0.00     0.005 A 
HETATM    4  C   UNL     1       7.136   8.687  91.105  1.00  0.00     0.042 A 
HETATM    5  C   UNL     1       6.547   8.965  89.872  1.00  0.00     0.008 A 
HETATM    6  C   UNL     1       6.770   9.418  92.235  1.00  0.00     0.008 A 
ENDROOT
BRANCH   1   7
HETATM    7  C   UNL     1       4.230  11.763  90.790  1.00  0.00     0.254 C 
HETATM    8  O   UNL     1       3.216  11.566  90.124  1.00  0.00    -0.268 OA
HETATM    9  N   UNL     1       4.504  12.931  91.488  1.00  0.00    -0.337 N 
HETATM   10  HN  UNL     1       5.351  13.013  92.039  1.00  0.00     0.164 HD
BRANCH   9  11
HETATM   11  C   UNL     1       3.605  14.057  91.499  1.00  0.00     0.172 C 
BRANCH  11  12
HETATM   12  C   UNL     1       3.576  14.807  90.162  1.00  0.00     0.136 C 
HETATM   13  C   UNL     1       4.959  14.925  89.529  1.00  0.00     0.034 C 
BRANCH  12  14
HETATM   14  O   UNL     1       2.707  14.132  89.254  1.00  0.00    -0.383 OA
HETATM   15  H   UNL     1       3.033  14.282  88.351  1.00  0.00     0.210 HD
ENDBRANCH  12  14
ENDBRANCH  11  12
BRANCH  11  16
HETATM   16  C   UNL     1       2.219  13.543  91.876  1.00  0.00     0.398 A 
HETATM   17  O   UNL     1       1.210  14.244  91.832  1.00  0.00    -0.136 OA
HETATM   18  N   UNL     1       1.232  13.430  93.116  1.00  0.00     0.142 N 
HETATM   19  HN  UNL     1       0.372  13.883  93.249  1.00  0.00     0.338 HD
BRANCH  18  20
HETATM   20  S   UNL     1       2.073  12.744  93.985  1.00  0.00     0.076 SA
HETATM   21  H   UNL     1       2.232  11.587  93.768  1.00  0.00     0.136 HD
ENDBRANCH  18  20
ENDBRANCH  11  16
ENDBRANCH   9  11
ENDBRANCH   1   7
BRANCH   4  22
HETATM   22  C   UNL     1       8.113   7.649  91.212  1.00  0.00    -0.059 C 
HETATM   23  C   UNL     1       8.935   6.775  91.302  1.00  0.00    -0.059 C 
BRANCH  23  24
HETATM   24  C   UNL     1       9.912   5.736  91.408  1.00  0.00     0.042 A 
HETATM   25  C   UNL     1      10.561   5.271  90.264  1.00  0.00     0.008 A 
HETATM   26  C   UNL     1      11.512   4.256  90.367  1.00  0.00    -0.002 A 
HETATM   27  C   UNL     1      11.815   3.709  91.614  1.00  0.00     0.011 A 
HETATM   28  C   UNL     1      11.166   4.176  92.757  1.00  0.00    -0.002 A 
HETATM   29  C   UNL     1      10.214   5.190  92.654  1.00  0.00     0.008 A 
BRANCH  27  30
HETATM   30  C   UNL     1      12.834   2.626  91.724  1.00  0.00     0.277 C 
BRANCH  30  31
HETATM   31  N   UNL     1      13.816   2.888  92.774  1.00  0.00     0.147 N 
HETATM   32  C   UNL     1      14.634   1.695  93.032  1.00  0.00     0.283 C 
HETATM   33  C   UNL     1      15.658   1.996  94.123  1.00  0.00     0.178 C 
HETATM   34  O   UNL     1      16.486   3.095  93.738  1.00  0.00    -0.350 OA
HETATM   35  C   UNL     1      15.701   4.268  93.516  1.00  0.00     0.178 C 
HETATM   36  C   UNL     1      14.679   4.021  92.412  1.00  0.00     0.283 C 
ENDBRANCH  30  31
ENDBRANCH  27  30
ENDBRANCH  23  24
ENDBRANCH   4  22
TORSDOF 10
ENDMDL
MODEL 4
REMARK VINA RESULT:      -6.3      1.582      2.061
REMARK  10 active torsions:
REMARK  status: ('A' for Active; 'I' for Inactive)
REMARK    1  A    between atoms: O_2  and  C_16 
REMARK    2  A    between atoms: N_5  and  C_9 
REMARK    3  A    between atoms: N_6  and  C_13 
REMARK       I    between atoms: N_6  and  C_22 
REMARK    4  A    between atoms: C_9  and  C_12 
REMARK    5  A    between atoms: C_13  and  C_16 
REMARK    6  A    between atoms: C_13  and  C_21 
REMARK    7  A    between atoms: C_19  and  C_24 
REMARK    8  A    between atoms: C_22  and  C_23 
REMARK    9  A    between atoms: C_27  and  C_30 
REMARK   10  A    between atoms: N_33  and  S_34 
ROOT
HETATM    1  C   UNL     1       5.787   9.546  89.926  1.00  0.00     0.056 A 
HETATM    2  C   UNL     1       6.782   9.937  90.799  1.00  0.00     0.005 A 
HETATM    3  C   UNL     1       5.743   8.281  89.379  1.00  0.00     0.005 A 
HETATM    4  C   UNL     1       7.755   7.735  90.599  1.00  0.00     0.042 A 
HETATM    5  C   UNL     1       7.778   9.021  91.139  1.00  0.00     0.008 A 
HETATM    6  C   UNL     1       6.738   7.365  89.719  1.00  0.00     0.008 A 
ENDROOT
BRANCH   1   7
HETATM    7  C   UNL     1       4.726  10.522  89.566  1.00  0.00     0.254 C 
HETATM    8  O   UNL     1       4.050  10.327  88.558  1.00  0.00    -0.268 OA
HETATM    9  N   UNL     1       4.562  11.592  90.434  1.00  0.00    -0.337 N 
HETATM   10  HN  UNL     1       5.142  11.674  91.262  1.00  0.00     0.164 HD
BRANCH   9  11
HETATM   11  C   UNL     1       3.560  12.607  90.234  1.00  0.00     0.172 C 
BRANCH  11  12
HETATM   12  C   UNL     1       2.567  12.699  91.400  1.00  0.00     0.136 C 
HETATM   13  C   UNL     1       2.284  11.342  92.035  1.00  0.00     0.034 C 
BRANCH  12  14
HETATM   14  O   UNL     1       3.084  13.579  92.398  1.00  0.00    -0.383 OA
HETATM   15  H   UNL     1       3.818  13.129  92.851  1.00  0.00     0.210 HD
ENDBRANCH  12  14
ENDBRANCH  11  12
BRANCH  11  16
HETATM   16  C   UNL     1       4.278  13.934  90.011  1.00  0.00     0.398 A 
HETATM   17  O   UNL     1       3.691  15.013  89.960  1.00  0.00    -0.136 OA
HETATM   18  N   UNL     1       4.727  14.922  88.851  1.00  0.00     0.142 N 
HETATM   19  HN  UNL     1       4.400  15.829  88.668  1.00  0.00     0.338 HD
BRANCH  18  20
HETATM   20  S   UNL     1       5.473  14.025  88.095  1.00  0.00     0.076 SA
HETATM   21  H   UNL     1       5.489  14.206  86.921  1.00  0.00     0.136 HD
ENDBRANCH  18  20
ENDBRANCH  11  16
ENDBRANCH   9  11
ENDBRANCH   1   7
BRANCH   4  22
HETATM   22  C   UNL     1       8.777   6.797  90.945  1.00  0.00    -0.059 C 
HETATM   23  C   UNL     1       9.637   6.009  91.236  1.00  0.00    -0.059 C 
BRANCH  23  24
HETATM   24  C   UNL     1      10.661   5.072  91.583  1.00  0.00     0.042 A 
HETATM   25  C   UNL     1      11.489   4.547  90.592  1.00  0.00     0.008 A 
HETATM   26  C   UNL     1      12.485   3.631  90.930  1.00  0.00    -0.002 A 
HETATM   27  C   UNL     1      12.654   3.243  92.259  1.00  0.00     0.011 A 
HETATM   28  C   UNL     1      11.825   3.769  93.250  1.00  0.00    -0.002 A 
HETATM   29  C   UNL     1      10.828   4.684  92.911  1.00  0.00     0.008 A 
BRANCH  27  30
HETATM   30  C   UNL     1      13.721   2.265  92.620  1.00  0.00     0.277 C 
BRANCH  30  31
HETATM   31  N   UNL     1      14.769   2.864  93.444  1.00  0.00     0.147 N 
HETATM   32  C   UNL     1      16.043   2.155  93.262  1.00  0.00     0.283 C 
HETATM   33  C   UNL     1      17.123   2.804  94.124  1.00  0.00     0.178 C 
HETATM   34  O   UNL     1      17.268   4.184  93.784  1.00  0.00    -0.350 OA
HETATM   35  C   UNL     1      16.041   4.887  93.988  1.00  0.00     0.178 C 
HETATM   36  C   UNL     1      14.936   4.289  93.125  1.00  0.00     0.283 C 
ENDBRANCH  30  31
ENDBRANCH  27  30
ENDBRANCH  23  24
ENDBRANCH   4  22
TORSDOF 10
ENDMDL
MODEL 5
REMARK VINA RESULT:      -5.8      1.746      2.544
REMARK  10 active torsions:
REMARK  status: ('A' for Active; 'I' for Inactive)
REMARK    1  A    between atoms: O_2  and  C_16 
REMARK    2  A    between atoms: N_5  and  C_9 
REMARK    3  A    between atoms: N_6  and  C_13 
REMARK       I    between atoms: N_6  and  C_22 
REMARK    4  A    between atoms: C_9  and  C_12 
REMARK    5  A    between atoms: C_13  and  C_16 
REMARK    6  A    between atoms: C_13  and  C_21 
REMARK    7  A    between atoms: C_19  and  C_24 
REMARK    8  A    between atoms: C_22  and  C_23 
REMARK    9  A    between atoms: C_27  and  C_30 
REMARK   10  A    between atoms: N_33  and  S_34 
ROOT
HETATM    1  C   UNL     1       4.905   9.921  91.475  1.00  0.00     0.056 A 
HETATM    2  C   UNL     1       5.897   9.913  90.517  1.00  0.00     0.005 A 
HETATM    3  C   UNL     1       4.854   8.989  92.490  1.00  0.00     0.005 A 
HETATM    4  C   UNL     1       6.853   7.973  91.593  1.00  0.00     0.042 A 
HETATM    5  C   UNL     1       6.883   8.928  90.576  1.00  0.00     0.008 A 
HETATM    6  C   UNL     1       5.839   8.003  92.550  1.00  0.00     0.008 A 
ENDROOT
BRANCH   1   7
HETATM    7  C   UNL     1       3.857  10.973  91.413  1.00  0.00     0.254 C 
HETATM    8  O   UNL     1       2.707  10.656  91.119  1.00  0.00    -0.268 OA
HETATM    9  N   UNL     1       4.268  12.261  91.725  1.00  0.00    -0.337 N 
HETATM   10  HN  UNL     1       5.231  12.443  91.983  1.00  0.00     0.164 HD
BRANCH   9  11
HETATM   11  C   UNL     1       3.365  13.383  91.733  1.00  0.00     0.172 C 
BRANCH  11  12
HETATM   12  C   UNL     1       3.783  14.475  92.727  1.00  0.00     0.136 C 
HETATM   13  C   UNL     1       4.523  15.625  92.053  1.00  0.00     0.034 C 
BRANCH  12  14
HETATM   14  O   UNL     1       2.626  14.990  93.385  1.00  0.00    -0.383 OA
HETATM   15  H   UNL     1       2.391  14.384  94.107  1.00  0.00     0.210 HD
ENDBRANCH  12  14
ENDBRANCH  11  12
BRANCH  11  16
HETATM   16  C   UNL     1       3.286  13.929  90.311  1.00  0.00     0.398 A 
HETATM   17  O   UNL     1       2.420  13.585  89.509  1.00  0.00    -0.136 OA
HETATM   18  N   UNL     1       3.782  13.618  88.834  1.00  0.00     0.142 N 
HETATM   19  HN  UNL     1       3.242  13.361  88.056  1.00  0.00     0.338 HD
BRANCH  18  20
HETATM   20  S   UNL     1       5.149  13.572  89.082  1.00  0.00     0.076 SA
HETATM   21  H   UNL     1       5.515  12.787  89.896  1.00  0.00     0.136 HD
ENDBRANCH  18  20
ENDBRANCH  11  16
ENDBRANCH   9  11
ENDBRANCH   1   7
BRANCH   4  22
HETATM   22  C   UNL     1       7.861   6.961  91.651  1.00  0.00    -0.059 C 
HETATM   23  C   UNL     1       8.709   6.110  91.702  1.00  0.00    -0.059 C 
BRANCH  23  24
HETATM   24  C   UNL     1       9.718   5.097  91.761  1.00  0.00     0.042 A 
HETATM   25  C   UNL     1       9.956   4.286  90.651  1.00  0.00     0.008 A 
HETATM   26  C   UNL     1      10.937   3.297  90.709  1.00  0.00    -0.002 A 
HETATM   27  C   UNL     1      11.681   3.121  91.876  1.00  0.00     0.011 A 
HETATM   28  C   UNL     1      11.442   3.933  92.985  1.00  0.00    -0.002 A 
HETATM   29  C   UNL     1      10.460   4.921  92.927  1.00  0.00     0.008 A 
BRANCH  27  30
HETATM   30  C   UNL     1      12.732   2.064  91.937  1.00  0.00     0.277 C 
BRANCH  30  31
HETATM   31  N   UNL     1      14.036   2.597  92.328  1.00  0.00     0.147 N 
HETATM   32  C   UNL     1      14.093   4.049  92.104  1.00  0.00     0.283 C 
HETATM   33  C   UNL     1      15.458   4.584  92.530  1.00  0.00     0.178 C 
HETATM   34  O   UNL     1      15.705   4.280  93.904  1.00  0.00    -0.350 OA
HETATM   35  C   UNL     1      15.682   2.870  94.123  1.00  0.00     0.178 C 
HETATM   36  C   UNL     1      14.324   2.293  93.736  1.00  0.00     0.283 C 
ENDBRANCH  30  31
ENDBRANCH  27  30
ENDBRANCH  23  24
ENDBRANCH   4  22
TORSDOF 10
ENDMDL
MODEL 6
REMARK VINA RESULT:      -5.6      1.480      2.131
REMARK  10 active torsions:
REMARK  status: ('A' for Active; 'I' for Inactive)
REMARK    1  A    between atoms: O_2  and  C_16 
REMARK    2  A    between atoms: N_5  and  C_9 
REMARK    3  A    between atoms: N_6  and  C_13 
REMARK       I    between atoms: N_6  and  C_22 
REMARK    4  A    between atoms: C_9  and  C_12 
REMARK    5  A    between atoms: C_13  and  C_16 
REMARK    6  A    between atoms: C_13  and  C_21 
REMARK    7  A    between atoms: C_19  and  C_24 
REMARK    8  A    between atoms: C_22  and  C_23 
REMARK    9  A    between atoms: C_27  and  C_30 
REMARK   10  A    between atoms: N_33  and  S_34 
ROOT
HETATM    1  C   UNL     1       5.965  10.203  90.532  1.00  0.00     0.056 A 
HETATM    2  C   UNL     1       6.642  10.233  91.734  1.00  0.00     0.005 A 
HETATM    3  C   UNL     1       6.194   9.230  89.582  1.00  0.00     0.005 A 
HETATM    4  C   UNL     1       7.841   8.250  91.053  1.00  0.00     0.042 A 
HETATM    5  C   UNL     1       7.591   9.245  91.998  1.00  0.00     0.008 A 
HETATM    6  C   UNL     1       7.143   8.242  89.845  1.00  0.00     0.008 A 
ENDROOT
BRANCH   1   7
HETATM    7  C   UNL     1       4.953  11.254  90.253  1.00  0.00     0.254 C 
HETATM    8  O   UNL     1       3.991  10.985  89.538  1.00  0.00    -0.268 OA
HETATM    9  N   UNL     1       5.170  12.484  90.858  1.00  0.00    -0.337 N 
HETATM   10  HN  UNL     1       5.975  12.626  91.457  1.00  0.00     0.164 HD
BRANCH   9  11
HETATM   11  C   UNL     1       4.266  13.595  90.704  1.00  0.00     0.172 C 
BRANCH  11  12
HETATM   12  C   UNL     1       4.258  14.160  89.278  1.00  0.00     0.136 C 
HETATM   13  C   UNL     1       5.600  13.988  88.574  1.00  0.00     0.034 C 
BRANCH  12  14
HETATM   14  O   UNL     1       3.246  13.508  88.511  1.00  0.00    -0.383 OA
HETATM   15  H   UNL     1       2.416  13.535  89.016  1.00  0.00     0.210 HD
ENDBRANCH  12  14
ENDBRANCH  11  12
BRANCH  11  16
HETATM   16  C   UNL     1       2.876  13.126  91.122  1.00  0.00     0.398 A 
HETATM   17  O   UNL     1       1.857  13.783  90.915  1.00  0.00    -0.136 OA
HETATM   18  N   UNL     1       1.845  13.220  92.327  1.00  0.00     0.142 N 
HETATM   19  HN  UNL     1       0.973  13.669  92.344  1.00  0.00     0.338 HD
BRANCH  18  20
HETATM   20  S   UNL     1       2.664  12.725  93.336  1.00  0.00     0.076 SA
HETATM   21  H   UNL     1       2.867  11.554  93.329  1.00  0.00     0.136 HD
ENDBRANCH  18  20
ENDBRANCH  11  16
ENDBRANCH   9  11
ENDBRANCH   1   7
BRANCH   4  22
HETATM   22  C   UNL     1       8.816   7.239  91.322  1.00  0.00    -0.059 C 
HETATM   23  C   UNL     1       9.636   6.389  91.549  1.00  0.00    -0.059 C 
BRANCH  23  24
HETATM   24  C   UNL     1      10.611   5.377  91.818  1.00  0.00     0.042 A 
HETATM   25  C   UNL     1      10.792   4.915  93.121  1.00  0.00     0.008 A 
HETATM   26  C   UNL     1      11.744   3.930  93.385  1.00  0.00    -0.002 A 
HETATM   27  C   UNL     1      12.512   3.407  92.344  1.00  0.00     0.011 A 
HETATM   28  C   UNL     1      12.329   3.870  91.041  1.00  0.00    -0.002 A 
HETATM   29  C   UNL     1      11.378   4.856  90.779  1.00  0.00     0.008 A 
BRANCH  27  30
HETATM   30  C   UNL     1      13.528   2.352  92.626  1.00  0.00     0.277 C 
BRANCH  30  31
HETATM   31  N   UNL     1      14.656   2.860  93.405  1.00  0.00     0.147 N 
HETATM   32  C   UNL     1      15.916   2.258  92.948  1.00  0.00     0.283 C 
HETATM   33  C   UNL     1      17.080   2.810  93.767  1.00  0.00     0.178 C 
HETATM   34  O   UNL     1      17.137   4.233  93.653  1.00  0.00    -0.350 OA
HETATM   35  C   UNL     1      15.927   4.828  94.124  1.00  0.00     0.178 C 
HETATM   36  C   UNL     1      14.736   4.324  93.315  1.00  0.00     0.283 C 
ENDBRANCH  30  31
ENDBRANCH  27  30
ENDBRANCH  23  24
ENDBRANCH   4  22
TORSDOF 10
ENDMDL
MODEL 7
REMARK VINA RESULT:      -5.6      2.664      3.638
REMARK  10 active torsions:
REMARK  status: ('A' for Active; 'I' for Inactive)
REMARK    1  A    between atoms: O_2  and  C_16 
REMARK    2  A    between atoms: N_5  and  C_9 
REMARK    3  A    between atoms: N_6  and  C_13 
REMARK       I    between atoms: N_6  and  C_22 
REMARK    4  A    between atoms: C_9  and  C_12 
REMARK    5  A    between atoms: C_13  and  C_16 
REMARK    6  A    between atoms: C_13  and  C_21 
REMARK    7  A    between atoms: C_19  and  C_24 
REMARK    8  A    between atoms: C_22  and  C_23 
REMARK    9  A    between atoms: C_27  and  C_30 
REMARK   10  A    between atoms: N_33  and  S_34 
ROOT
HETATM    1  C   UNL     1       6.053   8.555  89.105  1.00  0.00     0.056 A 
HETATM    2  C   UNL     1       7.372   8.872  88.853  1.00  0.00     0.005 A 
HETATM    3  C   UNL     1       5.690   7.464  89.866  1.00  0.00     0.005 A 
HETATM    4  C   UNL     1       8.032   6.950  90.159  1.00  0.00     0.042 A 
HETATM    5  C   UNL     1       8.373   8.060  89.385  1.00  0.00     0.008 A 
HETATM    6  C   UNL     1       6.691   6.652  90.399  1.00  0.00     0.008 A 
ENDROOT
BRANCH   1   7
HETATM    7  C   UNL     1       4.986   9.422  88.539  1.00  0.00     0.254 C 
HETATM    8  O   UNL     1       4.687   9.307  87.353  1.00  0.00    -0.268 OA
HETATM    9  N   UNL     1       4.381  10.299  89.428  1.00  0.00    -0.337 N 
HETATM   10  HN  UNL     1       4.664  10.321  90.400  1.00  0.00     0.164 HD
BRANCH   9  11
HETATM   11  C   UNL     1       3.314  11.186  89.036  1.00  0.00     0.172 C 
BRANCH  11  12
HETATM   12  C   UNL     1       3.815  12.585  88.659  1.00  0.00     0.136 C 
HETATM   13  C   UNL     1       4.777  13.160  89.692  1.00  0.00     0.034 C 
BRANCH  12  14
HETATM   14  O   UNL     1       4.473  12.532  87.393  1.00  0.00    -0.383 OA
HETATM   15  H   UNL     1       5.406  12.306  87.544  1.00  0.00     0.210 HD
ENDBRANCH  12  14
ENDBRANCH  11  12
BRANCH  11  16
HETATM   16  C   UNL     1       2.567  10.533  87.878  1.00  0.00     0.398 A 
HETATM   17  O   UNL     1       1.573  11.034  87.355  1.00  0.00    -0.136 OA
HETATM   18  N   UNL     1       1.358   9.546  87.581  1.00  0.00     0.142 N 
HETATM   19  HN  UNL     1       0.502   9.751  87.147  1.00  0.00     0.338 HD
BRANCH  18  20
HETATM   20  S   UNL     1       1.790   8.460  88.333  1.00  0.00     0.076 SA
HETATM   21  H   UNL     1       0.947   7.732  88.748  1.00  0.00     0.136 HD
ENDBRANCH  18  20
ENDBRANCH  11  16
ENDBRANCH   9  11
ENDBRANCH   1   7
BRANCH   4  22
HETATM   22  C   UNL     1       9.059   6.117  90.702  1.00  0.00    -0.059 C 
HETATM   23  C   UNL     1       9.922   5.415  91.160  1.00  0.00    -0.059 C 
BRANCH  23  24
HETATM   24  C   UNL     1      10.948   4.580  91.704  1.00  0.00     0.042 A 
HETATM   25  C   UNL     1      11.785   3.861  90.852  1.00  0.00     0.008 A 
HETATM   26  C   UNL     1      12.784   3.045  91.382  1.00  0.00    -0.002 A 
HETATM   27  C   UNL     1      12.948   2.952  92.765  1.00  0.00     0.011 A 
HETATM   28  C   UNL     1      12.110   3.673  93.616  1.00  0.00    -0.002 A 
HETATM   29  C   UNL     1      11.110   4.487  93.085  1.00  0.00     0.008 A 
BRANCH  27  30
HETATM   30  C   UNL     1      14.018   2.081  93.330  1.00  0.00     0.277 C 
BRANCH  30  31
HETATM   31  N   UNL     1      15.114   2.853  93.912  1.00  0.00     0.147 N 
HETATM   32  C   UNL     1      16.413   2.294  93.514  1.00  0.00     0.283 C 
HETATM   33  C   UNL     1      17.541   3.122  94.124  1.00  0.00     0.178 C 
HETATM   34  O   UNL     1      17.437   4.486  93.710  1.00  0.00    -0.350 OA
HETATM   35  C   UNL     1      16.189   5.046  94.120  1.00  0.00     0.178 C 
HETATM   36  C   UNL     1      15.029   4.265  93.512  1.00  0.00     0.283 C 
ENDBRANCH  30  31
ENDBRANCH  27  30
ENDBRANCH  23  24
ENDBRANCH   4  22
TORSDOF 10
ENDMDL
MODEL 8
REMARK VINA RESULT:      -5.5      3.699     12.444
REMARK  10 active torsions:
REMARK  status: ('A' for Active; 'I' for Inactive)
REMARK    1  A    between atoms: O_2  and  C_16 
REMARK    2  A    between atoms: N_5  and  C_9 
REMARK    3  A    between atoms: N_6  and  C_13 
REMARK       I    between atoms: N_6  and  C_22 
REMARK    4  A    between atoms: C_9  and  C_12 
REMARK    5  A    between atoms: C_13  and  C_16 
REMARK    6  A    between atoms: C_13  and  C_21 
REMARK    7  A    between atoms: C_19  and  C_24 
REMARK    8  A    between atoms: C_22  and  C_23 
REMARK    9  A    between atoms: C_27  and  C_30 
REMARK   10  A    between atoms: N_33  and  S_34 
ROOT
HETATM    1  C   UNL     1      10.154   5.723  90.092  1.00  0.00     0.056 A 
HETATM    2  C   UNL     1       9.646   6.171  91.293  1.00  0.00     0.005 A 
HETATM    3  C   UNL     1       9.760   6.253  88.882  1.00  0.00     0.005 A 
HETATM    4  C   UNL     1       8.283   7.748  90.074  1.00  0.00     0.042 A 
HETATM    5  C   UNL     1       8.699   7.195  91.285  1.00  0.00     0.008 A 
HETATM    6  C   UNL     1       8.813   7.278  88.872  1.00  0.00     0.008 A 
ENDROOT
BRANCH   1   7
HETATM    7  C   UNL     1      11.164   4.633  90.102  1.00  0.00     0.254 C 
HETATM    8  O   UNL     1      11.321   3.951  89.092  1.00  0.00    -0.268 OA
HETATM    9  N   UNL     1      11.887   4.484  91.278  1.00  0.00    -0.337 N 
HETATM   10  HN  UNL     1      11.720   5.101  92.064  1.00  0.00     0.164 HD
BRANCH   9  11
HETATM   11  C   UNL     1      12.917   3.489  91.434  1.00  0.00     0.172 C 
BRANCH  11  12
HETATM   12  C   UNL     1      14.314   4.021  91.090  1.00  0.00     0.136 C 
HETATM   13  C   UNL     1      15.113   3.049  90.230  1.00  0.00     0.034 C 
BRANCH  12  14
HETATM   14  O   UNL     1      14.194   5.263  90.397  1.00  0.00    -0.383 OA
HETATM   15  H   UNL     1      14.192   5.080  89.442  1.00  0.00     0.210 HD
ENDBRANCH  12  14
ENDBRANCH  11  12
BRANCH  11  16
HETATM   16  C   UNL     1      12.857   2.978  92.870  1.00  0.00     0.398 A 
HETATM   17  O   UNL     1      12.709   3.720  93.840  1.00  0.00    -0.136 OA
HETATM   18  N   UNL     1      13.788   2.687  94.124  1.00  0.00     0.142 N 
HETATM   19  HN  UNL     1      13.798   3.147  94.990  1.00  0.00     0.338 HD
BRANCH  18  20
HETATM   20  S   UNL     1      14.687   1.819  93.515  1.00  0.00     0.076 SA
HETATM   21  H   UNL     1      15.820   1.894  93.866  1.00  0.00     0.136 HD
ENDBRANCH  18  20
ENDBRANCH  11  16
ENDBRANCH   9  11
ENDBRANCH   1   7
BRANCH   4  22
HETATM   22  C   UNL     1       7.311   8.797  90.064  1.00  0.00    -0.059 C 
HETATM   23  C   UNL     1       6.494   9.678  90.057  1.00  0.00    -0.059 C 
BRANCH  23  24
HETATM   24  C   UNL     1       5.521  10.728  90.048  1.00  0.00     0.042 A 
HETATM   25  C   UNL     1       5.751  11.883  89.302  1.00  0.00     0.008 A 
HETATM   26  C   UNL     1       4.804  12.907  89.294  1.00  0.00    -0.002 A 
HETATM   27  C   UNL     1       3.627  12.774  90.031  1.00  0.00     0.011 A 
HETATM   28  C   UNL     1       3.399  11.617  90.777  1.00  0.00    -0.002 A 
HETATM   29  C   UNL     1       4.346  10.594  90.785  1.00  0.00     0.008 A 
BRANCH  27  30
HETATM   30  C   UNL     1       2.615  13.868  90.021  1.00  0.00     0.277 C 
BRANCH  30  31
HETATM   31  N   UNL     1       2.614  14.638  91.263  1.00  0.00     0.147 N 
HETATM   32  C   UNL     1       1.747  14.005  92.267  1.00  0.00     0.283 C 
HETATM   33  C   UNL     1       1.770  14.819  93.558  1.00  0.00     0.178 C 
HETATM   34  O   UNL     1       3.107  14.931  94.051  1.00  0.00    -0.350 OA
HETATM   35  C   UNL     1       3.949  15.573  93.094  1.00  0.00     0.178 C 
HETATM   36  C   UNL     1       3.977  14.778  91.792  1.00  0.00     0.283 C 
ENDBRANCH  30  31
ENDBRANCH  27  30
ENDBRANCH  23  24
ENDBRANCH   4  22
TORSDOF 10
ENDMDL
MODEL 9
REMARK VINA RESULT:      -5.3      3.699     12.596
REMARK  10 active torsions:
REMARK  status: ('A' for Active; 'I' for Inactive)
REMARK    1  A    between atoms: O_2  and  C_16 
REMARK    2  A    between atoms: N_5  and  C_9 
REMARK    3  A    between atoms: N_6  and  C_13 
REMARK       I    between atoms: N_6  and  C_22 
REMARK    4  A    between atoms: C_9  and  C_12 
REMARK    5  A    between atoms: C_13  and  C_16 
REMARK    6  A    between atoms: C_13  and  C_21 
REMARK    7  A    between atoms: C_19  and  C_24 
REMARK    8  A    between atoms: C_22  and  C_23 
REMARK    9  A    between atoms: C_27  and  C_30 
REMARK   10  A    between atoms: N_33  and  S_34 
ROOT
HETATM    1  C   UNL     1      10.462   4.738  92.676  1.00  0.00     0.056 A 
HETATM    2  C   UNL     1      10.538   5.907  93.403  1.00  0.00     0.005 A 
HETATM    3  C   UNL     1       9.439   4.490  91.786  1.00  0.00     0.005 A 
HETATM    4  C   UNL     1       8.499   6.645  92.338  1.00  0.00     0.042 A 
HETATM    5  C   UNL     1       9.545   6.873  93.233  1.00  0.00     0.008 A 
HETATM    6  C   UNL     1       8.446   5.454  91.614  1.00  0.00     0.008 A 
ENDROOT
BRANCH   1   7
HETATM    7  C   UNL     1      11.521   3.711  92.857  1.00  0.00     0.254 C 
HETATM    8  O   UNL     1      11.198   2.532  92.977  1.00  0.00    -0.268 OA
HETATM    9  N   UNL     1      12.828   4.178  92.850  1.00  0.00    -0.337 N 
HETATM   10  HN  UNL     1      13.019   5.164  92.721  1.00  0.00     0.164 HD
BRANCH   9  11
HETATM   11  C   UNL     1      13.964   3.303  92.989  1.00  0.00     0.172 C 
BRANCH  11  12
HETATM   12  C   UNL     1      14.475   2.775  91.643  1.00  0.00     0.136 C 
HETATM   13  C   UNL     1      14.342   3.802  90.524  1.00  0.00     0.034 C 
BRANCH  12  14
HETATM   14  O   UNL     1      15.847   2.400  91.767  1.00  0.00    -0.383 OA
HETATM   15  H   UNL     1      16.139   2.027  90.917  1.00  0.00     0.210 HD
ENDBRANCH  12  14
ENDBRANCH  11  12
BRANCH  11  16
HETATM   16  C   UNL     1      15.053   4.068  93.734  1.00  0.00     0.398 A 
HETATM   17  O   UNL     1      15.544   5.114  93.313  1.00  0.00    -0.136 OA
HETATM   18  N   UNL     1      16.633   4.193  93.836  1.00  0.00     0.142 N 
HETATM   19  HN  UNL     1      17.198   4.953  93.583  1.00  0.00     0.338 HD
BRANCH  18  20
HETATM   20  S   UNL     1      16.925   2.864  94.124  1.00  0.00     0.076 SA
HETATM   21  H   UNL     1      16.399   2.045  93.442  1.00  0.00     0.136 HD
ENDBRANCH  18  20
ENDBRANCH  11  16
ENDBRANCH   9  11
ENDBRANCH   1   7
BRANCH   4  22
HETATM   22  C   UNL     1       7.480   7.633  92.166  1.00  0.00    -0.059 C 
HETATM   23  C   UNL     1       6.624   8.465  92.021  1.00  0.00    -0.059 C 
BRANCH  23  24
HETATM   24  C   UNL     1       5.605   9.454  91.849  1.00  0.00     0.042 A 
HETATM   25  C   UNL     1       4.900   9.525  90.647  1.00  0.00     0.008 A 
HETATM   26  C   UNL     1       3.908  10.491  90.478  1.00  0.00    -0.002 A 
HETATM   27  C   UNL     1       3.620  11.383  91.511  1.00  0.00     0.011 A 
HETATM   28  C   UNL     1       4.325  11.310  92.712  1.00  0.00    -0.002 A 
HETATM   29  C   UNL     1       5.318  10.345  92.881  1.00  0.00     0.008 A 
BRANCH  27  30
HETATM   30  C   UNL     1       2.558  12.414  91.330  1.00  0.00     0.277 C 
BRANCH  30  31
HETATM   31  N   UNL     1       3.107  13.730  91.008  1.00  0.00     0.147 N 
HETATM   32  C   UNL     1       3.895  14.253  92.132  1.00  0.00     0.283 C 
HETATM   33  C   UNL     1       4.468  15.621  91.769  1.00  0.00     0.178 C 
HETATM   34  O   UNL     1       5.276  15.527  90.595  1.00  0.00    -0.350 OA
HETATM   35  C   UNL     1       4.509  15.047  89.490  1.00  0.00     0.178 C 
HETATM   36  C   UNL     1       3.938  13.667  89.797  1.00  0.00     0.283 C 
ENDBRANCH  30  31
ENDBRANCH  27  30
ENDBRANCH  23  24
ENDBRANCH   4  22
TORSDOF 10
ENDMDL
