MODEL 1
REMARK VINA RESULT:      -6.4      0.000      0.000
REMARK  14 active torsions:
REMARK  status: ('A' for Active; 'I' for Inactive)
REMARK    1  A    between atoms: O_2  and  C_18 
REMARK    2  A    between atoms: C_5  and  C_8 
REMARK    3  A    between atoms: C_5  and  O_35 
REMARK    4  A    between atoms: C_5  and  C_36 
REMARK    5  A    between atoms: N_6  and  C_11 
REMARK    6  A    between atoms: N_7  and  C_15 
REMARK       I    between atoms: N_7  and  C_24 
REMARK    7  A    between atoms: C_8  and  C_23 
REMARK    8  A    between atoms: C_11  and  C_14 
REMARK    9  A    between atoms: C_15  and  C_18 
REMARK   10  A    between atoms: C_15  and  C_23 
REMARK   11  A    between atoms: C_21  and  C_26 
REMARK   12  A    between atoms: C_24  and  C_25 
REMARK   13  A    between atoms: C_29  and  C_32 
REMARK   14  A    between atoms: C_36  and  O_39 
ROOT
HETATM    1  O   UNL     1      17.033   3.716  93.771  1.00  0.00    -0.350 OA
HETATM    2  N   UNL     1      14.402   3.061  92.903  1.00  0.00     0.147 N 
HETATM    3  C   UNL     1      15.438   2.030  93.058  1.00  0.00     0.283 C 
HETATM    4  C   UNL     1      15.021   4.352  92.573  1.00  0.00     0.283 C 
HETATM    5  C   UNL     1      16.442   2.463  94.124  1.00  0.00     0.178 C 
HETATM    6  C   UNL     1      16.035   4.730  93.648  1.00  0.00     0.178 C 
ENDROOT
BRANCH   2   7
HETATM    7  C   UNL     1      13.434   2.671  91.879  1.00  0.00     0.277 C 
BRANCH   7   8
HETATM    8  C   UNL     1      12.263   3.592  91.824  1.00  0.00     0.011 A 
HETATM    9  C   UNL     1      11.815   4.078  90.595  1.00  0.00    -0.002 A 
HETATM   10  C   UNL     1      10.721   4.941  90.543  1.00  0.00     0.008 A 
HETATM   11  C   UNL     1      10.075   5.317  91.720  1.00  0.00     0.042 A 
HETATM   12  C   UNL     1      10.521   4.832  92.948  1.00  0.00     0.008 A 
HETATM   13  C   UNL     1      11.615   3.970  93.001  1.00  0.00    -0.002 A 
BRANCH  11  14
HETATM   14  C   UNL     1       8.951   6.201  91.667  1.00  0.00    -0.059 C 
HETATM   15  C   UNL     1       8.007   6.944  91.622  1.00  0.00    -0.059 C 
BRANCH  15  16
HETATM   16  C   UNL     1       6.884   7.828  91.567  1.00  0.00     0.042 A 
HETATM   17  C   UNL     1       6.971   9.100  92.134  1.00  0.00     0.008 A 
HETATM   18  C   UNL     1       5.877   9.963  92.079  1.00  0.00     0.005 A 
HETATM   19  C   UNL     1       4.722   9.536  91.458  1.00  0.00     0.056 A 
HETATM   20  C   UNL     1       4.611   8.284  90.890  1.00  0.00     0.005 A 
HETATM   21  C   UNL     1       5.705   7.420  90.945  1.00  0.00     0.008 A 
BRANCH  19  22
HETATM   22  C   UNL     1       3.556  10.455  91.401  1.00  0.00     0.254 C 
HETATM   23  O   UNL     1       2.458  10.011  91.072  1.00  0.00    -0.268 OA
HETATM   24  N   UNL     1       3.803  11.773  91.757  1.00  0.00    -0.335 N 
HETATM   25  HN  UNL     1       4.731  12.062  92.042  1.00  0.00     0.164 HD
BRANCH  24  26
HETATM   26  C   UNL     1       2.770  12.778  91.775  1.00  0.00     0.169 C 
BRANCH  26  27
HETATM   27  C   UNL     1       2.671  13.503  93.123  1.00  0.00     0.138 C 
HETATM   28  C   UNL     1       3.906  13.292  93.992  1.00  0.00     0.034 C 
BRANCH  27  29
HETATM   29  O   UNL     1       2.494  14.902  92.901  1.00  0.00    -0.383 OA
HETATM   30  H   UNL     1       2.378  15.047  91.947  1.00  0.00     0.210 HD
ENDBRANCH  27  29
ENDBRANCH  26  27
BRANCH  26  31
HETATM   31  C   UNL     1       3.052  13.756  90.639  1.00  0.00     0.194 C 
HETATM   32  O   UNL     1       2.207  14.534  90.200  1.00  0.00    -0.289 OA
BRANCH  31  33
HETATM   33  C   UNL     1       4.331  13.633  90.153  1.00  0.00     0.053 C 
BRANCH  33  34
HETATM   34  C   UNL     1       4.456  13.641  88.757  1.00  0.00     0.220 C 
BRANCH  34  35
HETATM   35  O   UNL     1       5.474  14.299  88.470  1.00  0.00    -0.371 OA
HETATM   36  H   UNL     1       5.044  15.054  88.099  1.00  0.00     0.211 HD
ENDBRANCH  34  35
BRANCH  34  37
HETATM   37  C   UNL     1       4.475  12.356  88.188  1.00  0.00     0.185 C 
HETATM   38  O   UNL     1       5.680  12.306  88.735  1.00  0.00    -0.647 OA
BRANCH  37  39
HETATM   39  O   UNL     1       3.753  11.690  87.508  1.00  0.00    -0.774 OA
HETATM   40  H   UNL     1       2.676  11.748  87.861  1.00  0.00     0.167 HD
ENDBRANCH  37  39
ENDBRANCH  34  37
ENDBRANCH  33  34
ENDBRANCH  31  33
ENDBRANCH  26  31
ENDBRANCH  24  26
ENDBRANCH  19  22
ENDBRANCH  15  16
ENDBRANCH  11  14
ENDBRANCH   7   8
ENDBRANCH   2   7
TORSDOF 14
ENDMDL
MODEL 2
REMARK VINA RESULT:      -4.6      1.546      2.246
REMARK  14 active torsions:
REMARK  status: ('A' for Active; 'I' for Inactive)
REMARK    1  A    between atoms: O_2  and  C_18 
REMARK    2  A    between atoms: C_5  and  C_8 
REMARK    3  A    between atoms: C_5  and  O_35 
REMARK    4  A    between atoms: C_5  and  C_36 
REMARK    5  A    between atoms: N_6  and  C_11 
REMARK    6  A    between atoms: N_7  and  C_15 
REMARK       I    between atoms: N_7  and  C_24 
REMARK    7  A    between atoms: C_8  and  C_23 
REMARK    8  A    between atoms: C_11  and  C_14 
REMARK    9  A    between atoms: C_15  and  C_18 
REMARK   10  A    between atoms: C_15  and  C_23 
REMARK   11  A    between atoms: C_21  and  C_26 
REMARK   12  A    between atoms: C_24  and  C_25 
REMARK   13  A    between atoms: C_29  and  C_32 
REMARK   14  A    between atoms: C_36  and  O_39 
ROOT
HETATM    1  O   UNL     1      16.143   2.788  91.950  1.00  0.00    -0.350 OA
HETATM    2  N   UNL     1      13.438   3.020  92.805  1.00  0.00     0.147 N 
HETATM    3  C   UNL     1      14.336   2.000  93.366  1.00  0.00     0.283 C 
HETATM    4  C   UNL     1      13.840   3.342  91.429  1.00  0.00     0.283 C 
HETATM    5  C   UNL     1      15.780   2.491  93.300  1.00  0.00     0.178 C 
HETATM    6  C   UNL     1      15.295   3.800  91.408  1.00  0.00     0.178 C 
ENDROOT
BRANCH   2   7
HETATM    7  C   UNL     1      12.049   2.566  92.849  1.00  0.00     0.277 C 
BRANCH   7   8
HETATM    8  C   UNL     1      11.083   3.701  92.889  1.00  0.00     0.011 A 
HETATM    9  C   UNL     1      11.217   4.696  93.858  1.00  0.00    -0.002 A 
HETATM   10  C   UNL     1      10.312   5.756  93.898  1.00  0.00     0.008 A 
HETATM   11  C   UNL     1       9.275   5.822  92.968  1.00  0.00     0.042 A 
HETATM   12  C   UNL     1       9.140   4.829  92.000  1.00  0.00     0.008 A 
HETATM   13  C   UNL     1      10.044   3.768  91.960  1.00  0.00    -0.002 A 
BRANCH  11  14
HETATM   14  C   UNL     1       8.347   6.911  93.008  1.00  0.00    -0.059 C 
HETATM   15  C   UNL     1       7.568   7.826  93.041  1.00  0.00    -0.059 C 
BRANCH  15  16
HETATM   16  C   UNL     1       6.641   8.914  93.080  1.00  0.00     0.042 A 
HETATM   17  C   UNL     1       5.539   8.921  92.225  1.00  0.00     0.008 A 
HETATM   18  C   UNL     1       4.633   9.981  92.266  1.00  0.00     0.005 A 
HETATM   19  C   UNL     1       4.850  11.009  93.159  1.00  0.00     0.056 A 
HETATM   20  C   UNL     1       5.932  11.026  94.014  1.00  0.00     0.005 A 
HETATM   21  C   UNL     1       6.838   9.966  93.974  1.00  0.00     0.008 A 
BRANCH  19  22
HETATM   22  C   UNL     1       3.886  12.139  93.200  1.00  0.00     0.254 C 
HETATM   23  O   UNL     1       3.078  12.205  94.124  1.00  0.00    -0.268 OA
HETATM   24  N   UNL     1       3.994  13.069  92.176  1.00  0.00    -0.335 N 
HETATM   25  HN  UNL     1       4.703  12.962  91.460  1.00  0.00     0.164 HD
BRANCH  24  26
HETATM   26  C   UNL     1       3.148  14.232  92.091  1.00  0.00     0.169 C 
BRANCH  26  27
HETATM   27  C   UNL     1       3.891  15.532  92.423  1.00  0.00     0.138 C 
HETATM   28  C   UNL     1       4.275  15.624  93.896  1.00  0.00     0.034 C 
BRANCH  27  29
HETATM   29  O   UNL     1       5.073  15.622  91.629  1.00  0.00    -0.383 OA
HETATM   30  H   UNL     1       5.517  14.757  91.643  1.00  0.00     0.210 HD
ENDBRANCH  27  29
ENDBRANCH  26  27
BRANCH  26  31
HETATM   31  C   UNL     1       2.556  14.275  90.686  1.00  0.00     0.194 C 
HETATM   32  O   UNL     1       1.352  14.404  90.470  1.00  0.00    -0.289 OA
BRANCH  31  33
HETATM   33  C   UNL     1       3.514  14.116  89.714  1.00  0.00     0.053 C 
BRANCH  33  34
HETATM   34  C   UNL     1       3.748  12.797  89.299  1.00  0.00     0.220 C 
BRANCH  34  35
HETATM   35  O   UNL     1       2.702  12.372  88.774  1.00  0.00    -0.371 OA
HETATM   36  H   UNL     1       3.096  11.891  88.062  1.00  0.00     0.211 HD
ENDBRANCH  34  35
BRANCH  34  37
HETATM   37  C   UNL     1       4.862  12.666  88.452  1.00  0.00     0.185 C 
HETATM   38  O   UNL     1       4.291  11.512  88.144  1.00  0.00    -0.647 OA
BRANCH  37  39
HETATM   39  O   UNL     1       5.847  13.293  88.200  1.00  0.00    -0.774 OA
HETATM   40  H   UNL     1       5.975  13.440  87.082  1.00  0.00     0.167 HD
ENDBRANCH  37  39
ENDBRANCH  34  37
ENDBRANCH  33  34
ENDBRANCH  31  33
ENDBRANCH  26  31
ENDBRANCH  24  26
ENDBRANCH  19  22
ENDBRANCH  15  16
ENDBRANCH  11  14
ENDBRANCH   7   8
ENDBRANCH   2   7
TORSDOF 14
ENDMDL
