MODEL 1
REMARK VINA RESULT:      -6.9      0.000      0.000
REMARK  10 active torsions:
REMARK  status: ('A' for Active; 'I' for Inactive)
REMARK    1  A    between atoms: O_2  and  C_16 
REMARK    2  A    between atoms: N_5  and  C_9 
REMARK    3  A    between atoms: N_6  and  C_13 
REMARK       I    between atoms: N_6  and  C_22 
REMARK    4  A    between atoms: C_9  and  C_12 
REMARK    5  A    between atoms: C_13  and  C_16 
REMARK    6  A    between atoms: C_13  and  C_21 
REMARK    7  A    between atoms: C_19  and  C_24 
REMARK    8  A    between atoms: C_22  and  C_23 
REMARK    9  A    between atoms: C_27  and  C_30 
REMARK   10  A    between atoms: N_33  and  S_34 
ROOT
HETATM    1  C   UNL     1       5.721  11.026  89.686  1.00  0.00     0.056 A 
HETATM    2  C   UNL     1       5.187   9.805  90.039  1.00  0.00     0.005 A 
HETATM    3  C   UNL     1       7.080  11.234  89.587  1.00  0.00     0.005 A 
HETATM    4  C   UNL     1       7.430   8.928  90.214  1.00  0.00     0.042 A 
HETATM    5  C   UNL     1       6.051   8.743  90.307  1.00  0.00     0.008 A 
HETATM    6  C   UNL     1       7.945  10.173  89.854  1.00  0.00     0.008 A 
ENDROOT
BRANCH   1   7
HETATM    7  C   UNL     1       4.800  12.157  89.399  1.00  0.00     0.254 C 
HETATM    8  O   UNL     1       4.691  12.564  88.245  1.00  0.00    -0.268 OA
HETATM    9  N   UNL     1       4.097  12.660  90.485  1.00  0.00    -0.337 N 
HETATM   10  HN  UNL     1       4.220  12.256  91.406  1.00  0.00     0.164 HD
BRANCH   9  11
HETATM   11  C   UNL     1       3.149  13.738  90.364  1.00  0.00     0.172 C 
BRANCH  11  12
HETATM   12  C   UNL     1       1.886  13.515  91.205  1.00  0.00     0.136 C 
HETATM   13  C   UNL     1       2.096  12.488  92.312  1.00  0.00     0.034 C 
BRANCH  12  14
HETATM   14  O   UNL     1       1.479  14.751  91.791  1.00  0.00    -0.383 OA
HETATM   15  H   UNL     1       1.898  15.476  91.297  1.00  0.00     0.210 HD
ENDBRANCH  12  14
ENDBRANCH  11  12
BRANCH  11  16
HETATM   16  C   UNL     1       3.859  15.029  90.760  1.00  0.00     0.398 A 
HETATM   17  O   UNL     1       4.957  15.354  90.312  1.00  0.00    -0.136 OA
HETATM   18  N   UNL     1       4.906  15.597  91.812  1.00  0.00     0.142 N 
HETATM   19  HN  UNL     1       5.812  15.932  91.643  1.00  0.00     0.338 HD
BRANCH  18  20
HETATM   20  S   UNL     1       4.247  15.225  92.978  1.00  0.00     0.076 SA
HETATM   21  H   UNL     1       3.727  16.097  93.596  1.00  0.00     0.136 HD
ENDBRANCH  18  20
ENDBRANCH  11  16
ENDBRANCH   9  11
ENDBRANCH   1   7
BRANCH   4  22
HETATM   22  C   UNL     1       8.316   7.841  90.491  1.00  0.00    -0.059 C 
HETATM   23  C   UNL     1       9.061   6.926  90.724  1.00  0.00    -0.059 C 
BRANCH  23  24
HETATM   24  C   UNL     1       9.947   5.838  91.002  1.00  0.00     0.042 A 
HETATM   25  C   UNL     1      10.133   5.410  92.316  1.00  0.00     0.008 A 
HETATM   26  C   UNL     1      10.998   4.350  92.587  1.00  0.00    -0.002 A 
HETATM   27  C   UNL     1      11.676   3.718  91.544  1.00  0.00     0.011 A 
HETATM   28  C   UNL     1      11.488   4.147  90.230  1.00  0.00    -0.002 A 
HETATM   29  C   UNL     1      10.623   5.208  89.959  1.00  0.00     0.008 A 
BRANCH  27  30
HETATM   30  C   UNL     1      12.598   2.583  91.835  1.00  0.00     0.277 C 
BRANCH  30  31
HETATM   31  N   UNL     1      13.635   2.942  92.801  1.00  0.00     0.147 N 
HETATM   32  C   UNL     1      14.474   1.779  93.120  1.00  0.00     0.283 C 
HETATM   33  C   UNL     1      15.555   2.180  94.121  1.00  0.00     0.178 C 
HETATM   34  O   UNL     1      16.352   3.242  93.593  1.00  0.00    -0.350 OA
HETATM   35  C   UNL     1      15.548   4.387  93.310  1.00  0.00     0.178 C 
HETATM   36  C   UNL     1      14.468   4.040  92.290  1.00  0.00     0.283 C 
ENDBRANCH  30  31
ENDBRANCH  27  30
ENDBRANCH  23  24
ENDBRANCH   4  22
TORSDOF 10
ENDMDL
MODEL 2
REMARK VINA RESULT:      -6.8      1.124      1.506
REMARK  10 active torsions:
REMARK  status: ('A' for Active; 'I' for Inactive)
REMARK    1  A    between atoms: O_2  and  C_16 
REMARK    2  A    between atoms: N_5  and  C_9 
REMARK    3  A    between atoms: N_6  and  C_13 
REMARK       I    between atoms: N_6  and  C_22 
REMARK    4  A    between atoms: C_9  and  C_12 
REMARK    5  A    between atoms: C_13  and  C_16 
REMARK    6  A    between atoms: C_13  and  C_21 
REMARK    7  A    between atoms: C_19  and  C_24 
REMARK    8  A    between atoms: C_22  and  C_23 
REMARK    9  A    between atoms: C_27  and  C_30 
REMARK   10  A    between atoms: N_33  and  S_34 
ROOT
HETATM    1  C   UNL     1       5.080   9.825  89.729  1.00  0.00     0.056 A 
HETATM    2  C   UNL     1       4.705   8.538  90.053  1.00  0.00     0.005 A 
HETATM    3  C   UNL     1       6.402  10.211  89.656  1.00  0.00     0.005 A 
HETATM    4  C   UNL     1       7.042   7.958  90.251  1.00  0.00     0.042 A 
HETATM    5  C   UNL     1       5.697   7.593  90.317  1.00  0.00     0.008 A 
HETATM    6  C   UNL     1       7.395   9.267  89.920  1.00  0.00     0.008 A 
ENDROOT
BRANCH   1   7
HETATM    7  C   UNL     1       4.023  10.831  89.445  1.00  0.00     0.254 C 
HETATM    8  O   UNL     1       3.230  10.625  88.529  1.00  0.00    -0.268 OA
HETATM    9  N   UNL     1       4.002  11.941  90.277  1.00  0.00    -0.337 N 
HETATM   10  HN  UNL     1       4.674  12.031  91.030  1.00  0.00     0.164 HD
BRANCH   9  11
HETATM   11  C   UNL     1       3.024  12.991  90.144  1.00  0.00     0.172 C 
BRANCH  11  12
HETATM   12  C   UNL     1       2.333  13.330  91.472  1.00  0.00     0.136 C 
HETATM   13  C   UNL     1       1.313  14.454  91.329  1.00  0.00     0.034 C 
BRANCH  12  14
HETATM   14  O   UNL     1       1.675  12.168  91.977  1.00  0.00    -0.383 OA
HETATM   15  H   UNL     1       0.992  11.903  91.339  1.00  0.00     0.210 HD
ENDBRANCH  12  14
ENDBRANCH  11  12
BRANCH  11  16
HETATM   16  C   UNL     1       3.726  14.211  89.558  1.00  0.00     0.398 A 
HETATM   17  O   UNL     1       4.597  14.131  88.693  1.00  0.00    -0.136 OA
HETATM   18  N   UNL     1       5.009  15.124  89.768  1.00  0.00     0.142 N 
HETATM   19  HN  UNL     1       5.787  15.219  89.178  1.00  0.00     0.338 HD
BRANCH  18  20
HETATM   20  S   UNL     1       4.785  15.492  91.090  1.00  0.00     0.076 SA
HETATM   21  H   UNL     1       4.375  14.644  91.814  1.00  0.00     0.136 HD
ENDBRANCH  18  20
ENDBRANCH  11  16
ENDBRANCH   9  11
ENDBRANCH   1   7
BRANCH   4  22
HETATM   22  C   UNL     1       8.058   6.991  90.524  1.00  0.00    -0.059 C 
HETATM   23  C   UNL     1       8.912   6.177  90.755  1.00  0.00    -0.059 C 
BRANCH  23  24
HETATM   24  C   UNL     1       9.930   5.208  91.028  1.00  0.00     0.042 A 
HETATM   25  C   UNL     1      10.887   4.912  90.058  1.00  0.00     0.008 A 
HETATM   26  C   UNL     1      11.877   3.966  90.324  1.00  0.00    -0.002 A 
HETATM   27  C   UNL     1      11.910   3.319  91.560  1.00  0.00     0.011 A 
HETATM   28  C   UNL     1      10.952   3.617  92.528  1.00  0.00    -0.002 A 
HETATM   29  C   UNL     1       9.962   4.563  92.262  1.00  0.00     0.008 A 
BRANCH  27  30
HETATM   30  C   UNL     1      12.971   2.310  91.843  1.00  0.00     0.277 C 
BRANCH  30  31
HETATM   31  N   UNL     1      13.918   2.768  92.858  1.00  0.00     0.147 N 
HETATM   32  C   UNL     1      14.978   1.772  93.067  1.00  0.00     0.283 C 
HETATM   33  C   UNL     1      15.960   2.276  94.122  1.00  0.00     0.178 C 
HETATM   34  O   UNL     1      16.522   3.527  93.721  1.00  0.00    -0.350 OA
HETATM   35  C   UNL     1      15.500   4.509  93.546  1.00  0.00     0.178 C 
HETATM   36  C   UNL     1      14.508   4.059  92.479  1.00  0.00     0.283 C 
ENDBRANCH  30  31
ENDBRANCH  27  30
ENDBRANCH  23  24
ENDBRANCH   4  22
TORSDOF 10
ENDMDL
MODEL 3
REMARK VINA RESULT:      -6.7      1.477      2.305
REMARK  10 active torsions:
REMARK  status: ('A' for Active; 'I' for Inactive)
REMARK    1  A    between atoms: O_2  and  C_16 
REMARK    2  A    between atoms: N_5  and  C_9 
REMARK    3  A    between atoms: N_6  and  C_13 
REMARK       I    between atoms: N_6  and  C_22 
REMARK    4  A    between atoms: C_9  and  C_12 
REMARK    5  A    between atoms: C_13  and  C_16 
REMARK    6  A    between atoms: C_13  and  C_21 
REMARK    7  A    between atoms: C_19  and  C_24 
REMARK    8  A    between atoms: C_22  and  C_23 
REMARK    9  A    between atoms: C_27  and  C_30 
REMARK   10  A    between atoms: N_33  and  S_34 
ROOT
HETATM    1  C   UNL     1       5.318  10.432  91.019  1.00  0.00     0.056 A 
HETATM    2  C   UNL     1       6.571  10.650  90.485  1.00  0.00     0.005 A 
HETATM    3  C   UNL     1       4.994   9.268  91.685  1.00  0.00     0.005 A 
HETATM    4  C   UNL     1       7.241   8.474  91.292  1.00  0.00     0.042 A 
HETATM    5  C   UNL     1       7.544   9.660  90.623  1.00  0.00     0.008 A 
HETATM    6  C   UNL     1       5.967   8.278  91.823  1.00  0.00     0.008 A 
ENDROOT
BRANCH   1   7
HETATM    7  C   UNL     1       4.283  11.487  90.874  1.00  0.00     0.254 C 
HETATM    8  O   UNL     1       3.259  11.241  90.240  1.00  0.00    -0.268 OA
HETATM    9  N   UNL     1       4.552  12.694  91.505  1.00  0.00    -0.337 N 
HETATM   10  HN  UNL     1       5.408  12.817  92.032  1.00  0.00     0.164 HD
BRANCH   9  11
HETATM   11  C   UNL     1       3.635  13.805  91.477  1.00  0.00     0.172 C 
BRANCH  11  12
HETATM   12  C   UNL     1       3.556  14.475  90.099  1.00  0.00     0.136 C 
HETATM   13  C   UNL     1       4.923  14.614  89.438  1.00  0.00     0.034 C 
BRANCH  12  14
HETATM   14  O   UNL     1       2.705  13.711  89.245  1.00  0.00    -0.383 OA
HETATM   15  H   UNL     1       1.830  14.133  89.231  1.00  0.00     0.210 HD
ENDBRANCH  12  14
ENDBRANCH  11  12
BRANCH  11  16
HETATM   16  C   UNL     1       2.270  13.294  91.924  1.00  0.00     0.398 A 
HETATM   17  O   UNL     1       1.267  14.005  91.958  1.00  0.00    -0.136 OA
HETATM   18  N   UNL     1       1.359  13.160  93.219  1.00  0.00     0.142 N 
HETATM   19  HN  UNL     1       0.513  13.617  93.414  1.00  0.00     0.338 HD
BRANCH  18  20
HETATM   20  S   UNL     1       2.243  12.446  94.019  1.00  0.00     0.076 SA
HETATM   21  H   UNL     1       1.900  12.242  95.138  1.00  0.00     0.136 HD
ENDBRANCH  18  20
ENDBRANCH  11  16
ENDBRANCH   9  11
ENDBRANCH   1   7
BRANCH   4  22
HETATM   22  C   UNL     1       8.238   7.458  91.430  1.00  0.00    -0.059 C 
HETATM   23  C   UNL     1       9.075   6.604  91.548  1.00  0.00    -0.059 C 
BRANCH  23  24
HETATM   24  C   UNL     1      10.072   5.586  91.687  1.00  0.00     0.042 A 
HETATM   25  C   UNL     1      10.687   5.056  90.553  1.00  0.00     0.008 A 
HETATM   26  C   UNL     1      11.657   4.062  90.688  1.00  0.00    -0.002 A 
HETATM   27  C   UNL     1      12.012   3.602  91.957  1.00  0.00     0.011 A 
HETATM   28  C   UNL     1      11.396   4.135  93.089  1.00  0.00    -0.002 A 
HETATM   29  C   UNL     1      10.426   5.127  92.954  1.00  0.00     0.008 A 
BRANCH  27  30
HETATM   30  C   UNL     1      13.051   2.542  92.100  1.00  0.00     0.277 C 
BRANCH  30  31
HETATM   31  N   UNL     1      14.088   2.905  93.064  1.00  0.00     0.147 N 
HETATM   32  C   UNL     1      15.131   1.872  93.120  1.00  0.00     0.283 C 
HETATM   33  C   UNL     1      16.208   2.277  94.124  1.00  0.00     0.178 C 
HETATM   34  O   UNL     1      16.773   3.539  93.764  1.00  0.00    -0.350 OA
HETATM   35  C   UNL     1      15.770   4.555  93.738  1.00  0.00     0.178 C 
HETATM   36  C   UNL     1      14.684   4.205  92.726  1.00  0.00     0.283 C 
ENDBRANCH  30  31
ENDBRANCH  27  30
ENDBRANCH  23  24
ENDBRANCH   4  22
TORSDOF 10
ENDMDL
MODEL 4
REMARK VINA RESULT:      -6.5      1.584      1.919
REMARK  10 active torsions:
REMARK  status: ('A' for Active; 'I' for Inactive)
REMARK    1  A    between atoms: O_2  and  C_16 
REMARK    2  A    between atoms: N_5  and  C_9 
REMARK    3  A    between atoms: N_6  and  C_13 
REMARK       I    between atoms: N_6  and  C_22 
REMARK    4  A    between atoms: C_9  and  C_12 
REMARK    5  A    between atoms: C_13  and  C_16 
REMARK    6  A    between atoms: C_13  and  C_21 
REMARK    7  A    between atoms: C_19  and  C_24 
REMARK    8  A    between atoms: C_22  and  C_23 
REMARK    9  A    between atoms: C_27  and  C_30 
REMARK   10  A    between atoms: N_33  and  S_34 
ROOT
HETATM    1  C   UNL     1       4.531   9.759  91.268  1.00  0.00     0.056 A 
HETATM    2  C   UNL     1       5.711  10.137  91.873  1.00  0.00     0.005 A 
HETATM    3  C   UNL     1       4.338   8.493  90.756  1.00  0.00     0.005 A 
HETATM    4  C   UNL     1       6.577   7.920  91.459  1.00  0.00     0.042 A 
HETATM    5  C   UNL     1       6.747   9.207  91.970  1.00  0.00     0.008 A 
HETATM    6  C   UNL     1       5.373   7.563  90.852  1.00  0.00     0.008 A 
ENDROOT
BRANCH   1   7
HETATM    7  C   UNL     1       3.427  10.749  91.166  1.00  0.00     0.254 C 
HETATM    8  O   UNL     1       2.267  10.350  91.116  1.00  0.00    -0.268 OA
HETATM    9  N   UNL     1       3.807  12.084  91.160  1.00  0.00    -0.337 N 
HETATM   10  HN  UNL     1       4.785  12.340  91.230  1.00  0.00     0.164 HD
BRANCH   9  11
HETATM   11  C   UNL     1       2.853  13.162  91.091  1.00  0.00     0.172 C 
BRANCH  11  12
HETATM   12  C   UNL     1       2.690  13.897  92.428  1.00  0.00     0.136 C 
HETATM   13  C   UNL     1       1.228  14.138  92.787  1.00  0.00     0.034 C 
BRANCH  12  14
HETATM   14  O   UNL     1       3.304  13.137  93.468  1.00  0.00    -0.383 OA
HETATM   15  H   UNL     1       2.686  13.089  94.217  1.00  0.00     0.210 HD
ENDBRANCH  12  14
ENDBRANCH  11  12
BRANCH  11  16
HETATM   16  C   UNL     1       3.302  14.112  89.987  1.00  0.00     0.398 A 
HETATM   17  O   UNL     1       3.801  13.724  88.932  1.00  0.00    -0.136 OA
HETATM   18  N   UNL     1       4.579  14.910  89.479  1.00  0.00     0.142 N 
HETATM   19  HN  UNL     1       5.092  14.770  88.655  1.00  0.00     0.338 HD
BRANCH  18  20
HETATM   20  S   UNL     1       4.850  15.623  90.642  1.00  0.00     0.076 SA
HETATM   21  H   UNL     1       3.919  15.890  91.330  1.00  0.00     0.136 HD
ENDBRANCH  18  20
ENDBRANCH  11  16
ENDBRANCH   9  11
ENDBRANCH   1   7
BRANCH   4  22
HETATM   22  C   UNL     1       7.639   6.968  91.556  1.00  0.00    -0.059 C 
HETATM   23  C   UNL     1       8.533   6.168  91.637  1.00  0.00    -0.059 C 
BRANCH  23  24
HETATM   24  C   UNL     1       9.596   5.216  91.734  1.00  0.00     0.042 A 
HETATM   25  C   UNL     1      10.099   4.859  92.985  1.00  0.00     0.008 A 
HETATM   26  C   UNL     1      11.138   3.932  93.079  1.00  0.00    -0.002 A 
HETATM   27  C   UNL     1      11.671   3.362  91.923  1.00  0.00     0.011 A 
HETATM   28  C   UNL     1      11.166   3.719  90.673  1.00  0.00    -0.002 A 
HETATM   29  C   UNL     1      10.128   4.646  90.579  1.00  0.00     0.008 A 
BRANCH  27  30
HETATM   30  C   UNL     1      12.779   2.370  92.026  1.00  0.00     0.277 C 
BRANCH  30  31
HETATM   31  N   UNL     1      13.791   2.765  93.003  1.00  0.00     0.147 N 
HETATM   32  C   UNL     1      14.842   1.742  93.107  1.00  0.00     0.283 C 
HETATM   33  C   UNL     1      15.892   2.181  94.124  1.00  0.00     0.178 C 
HETATM   34  O   UNL     1      16.455   3.439  93.745  1.00  0.00    -0.350 OA
HETATM   35  C   UNL     1      15.445   4.445  93.672  1.00  0.00     0.178 C 
HETATM   36  C   UNL     1      14.384   4.061  92.646  1.00  0.00     0.283 C 
ENDBRANCH  30  31
ENDBRANCH  27  30
ENDBRANCH  23  24
ENDBRANCH   4  22
TORSDOF 10
ENDMDL
MODEL 5
REMARK VINA RESULT:      -5.5      3.578     12.400
REMARK  10 active torsions:
REMARK  status: ('A' for Active; 'I' for Inactive)
REMARK    1  A    between atoms: O_2  and  C_16 
REMARK    2  A    between atoms: N_5  and  C_9 
REMARK    3  A    between atoms: N_6  and  C_13 
REMARK       I    between atoms: N_6  and  C_22 
REMARK    4  A    between atoms: C_9  and  C_12 
REMARK    5  A    between atoms: C_13  and  C_16 
REMARK    6  A    between atoms: C_13  and  C_21 
REMARK    7  A    between atoms: C_19  and  C_24 
REMARK    8  A    between atoms: C_22  and  C_23 
REMARK    9  A    between atoms: C_27  and  C_30 
REMARK   10  A    between atoms: N_33  and  S_34 
ROOT
HETATM    1  C   UNL     1      10.128   5.751  89.850  1.00  0.00     0.056 A 
HETATM    2  C   UNL     1       9.733   6.320  88.657  1.00  0.00     0.005 A 
HETATM    3  C   UNL     1       9.629   6.169  91.066  1.00  0.00     0.005 A 
HETATM    4  C   UNL     1       8.279   7.796  89.899  1.00  0.00     0.042 A 
HETATM    5  C   UNL     1       8.798   7.355  88.681  1.00  0.00     0.008 A 
HETATM    6  C   UNL     1       8.694   7.204  91.091  1.00  0.00     0.008 A 
ENDROOT
BRANCH   1   7
HETATM    7  C   UNL     1      11.123   4.648  89.824  1.00  0.00     0.254 C 
HETATM    8  O   UNL     1      11.292   4.018  88.783  1.00  0.00    -0.268 OA
HETATM    9  N   UNL     1      11.817   4.427  91.005  1.00  0.00    -0.337 N 
HETATM   10  HN  UNL     1      11.642   5.004  91.819  1.00  0.00     0.164 HD
BRANCH   9  11
HETATM   11  C   UNL     1      12.830   3.410  91.130  1.00  0.00     0.172 C 
BRANCH  11  12
HETATM   12  C   UNL     1      14.250   3.990  91.184  1.00  0.00     0.136 C 
HETATM   13  C   UNL     1      15.306   2.990  90.726  1.00  0.00     0.034 C 
BRANCH  12  14
HETATM   14  O   UNL     1      14.322   5.152  90.359  1.00  0.00    -0.383 OA
HETATM   15  H   UNL     1      14.634   4.882  89.478  1.00  0.00     0.210 HD
ENDBRANCH  12  14
ENDBRANCH  11  12
BRANCH  11  16
HETATM   16  C   UNL     1      12.518   2.593  92.379  1.00  0.00     0.398 A 
HETATM   17  O   UNL     1      11.458   2.690  92.996  1.00  0.00    -0.136 OA
HETATM   18  N   UNL     1      12.630   2.654  93.963  1.00  0.00     0.142 N 
HETATM   19  HN  UNL     1      11.903   2.703  94.620  1.00  0.00     0.338 HD
BRANCH  18  20
HETATM   20  S   UNL     1      13.999   2.876  94.063  1.00  0.00     0.076 SA
HETATM   21  H   UNL     1      14.518   2.543  95.078  1.00  0.00     0.136 HD
ENDBRANCH  18  20
ENDBRANCH  11  16
ENDBRANCH   9  11
ENDBRANCH   1   7
BRANCH   4  22
HETATM   22  C   UNL     1       7.322   8.859  89.924  1.00  0.00    -0.059 C 
HETATM   23  C   UNL     1       6.518   9.753  89.944  1.00  0.00    -0.059 C 
BRANCH  23  24
HETATM   24  C   UNL     1       5.561  10.816  89.968  1.00  0.00     0.042 A 
HETATM   25  C   UNL     1       5.832  12.011  89.304  1.00  0.00     0.008 A 
HETATM   26  C   UNL     1       4.899  13.048  89.329  1.00  0.00    -0.002 A 
HETATM   27  C   UNL     1       3.696  12.888  90.017  1.00  0.00     0.011 A 
HETATM   28  C   UNL     1       3.427  11.691  90.681  1.00  0.00    -0.002 A 
HETATM   29  C   UNL     1       4.360  10.655  90.656  1.00  0.00     0.008 A 
BRANCH  27  30
HETATM   30  C   UNL     1       2.700  13.997  90.041  1.00  0.00     0.277 C 
BRANCH  30  31
HETATM   31  N   UNL     1       2.695  14.713  91.315  1.00  0.00     0.147 N 
HETATM   32  C   UNL     1       1.782  14.070  92.271  1.00  0.00     0.283 C 
HETATM   33  C   UNL     1       1.802  14.828  93.596  1.00  0.00     0.178 C 
HETATM   34  O   UNL     1       3.129  14.871  94.124  1.00  0.00    -0.350 OA
HETATM   35  C   UNL     1       4.016  15.523  93.214  1.00  0.00     0.178 C 
HETATM   36  C   UNL     1       4.049  14.783  91.881  1.00  0.00     0.283 C 
ENDBRANCH  30  31
ENDBRANCH  27  30
ENDBRANCH  23  24
ENDBRANCH   4  22
TORSDOF 10
ENDMDL
MODEL 6
REMARK VINA RESULT:      -5.4      3.581     12.567
REMARK  10 active torsions:
REMARK  status: ('A' for Active; 'I' for Inactive)
REMARK    1  A    between atoms: O_2  and  C_16 
REMARK    2  A    between atoms: N_5  and  C_9 
REMARK    3  A    between atoms: N_6  and  C_13 
REMARK       I    between atoms: N_6  and  C_22 
REMARK    4  A    between atoms: C_9  and  C_12 
REMARK    5  A    between atoms: C_13  and  C_16 
REMARK    6  A    between atoms: C_13  and  C_21 
REMARK    7  A    between atoms: C_19  and  C_24 
REMARK    8  A    between atoms: C_22  and  C_23 
REMARK    9  A    between atoms: C_27  and  C_30 
REMARK   10  A    between atoms: N_33  and  S_34 
ROOT
HETATM    1  C   UNL     1      10.400   5.098  92.128  1.00  0.00     0.056 A 
HETATM    2  C   UNL     1       9.672   5.672  93.148  1.00  0.00     0.005 A 
HETATM    3  C   UNL     1      10.279   5.508  90.816  1.00  0.00     0.005 A 
HETATM    4  C   UNL     1       8.640   7.134  91.525  1.00  0.00     0.042 A 
HETATM    5  C   UNL     1       8.781   6.702  92.844  1.00  0.00     0.008 A 
HETATM    6  C   UNL     1       9.389   6.537  90.511  1.00  0.00     0.008 A 
ENDROOT
BRANCH   1   7
HETATM    7  C   UNL     1      11.351   4.003  92.452  1.00  0.00     0.254 C 
HETATM    8  O   UNL     1      10.959   2.840  92.421  1.00  0.00    -0.268 OA
HETATM    9  N   UNL     1      12.649   4.394  92.750  1.00  0.00    -0.337 N 
HETATM   10  HN  UNL     1      12.907   5.373  92.731  1.00  0.00     0.164 HD
BRANCH   9  11
HETATM   11  C   UNL     1      13.691   3.448  93.061  1.00  0.00     0.172 C 
BRANCH  11  12
HETATM   12  C   UNL     1      14.152   2.648  91.836  1.00  0.00     0.136 C 
HETATM   13  C   UNL     1      14.107   3.469  90.552  1.00  0.00     0.034 C 
BRANCH  12  14
HETATM   14  O   UNL     1      15.486   2.185  92.043  1.00  0.00    -0.383 OA
HETATM   15  H   UNL     1      15.982   2.302  91.215  1.00  0.00     0.210 HD
ENDBRANCH  12  14
ENDBRANCH  11  12
BRANCH  11  16
HETATM   16  C   UNL     1      14.848   4.220  93.687  1.00  0.00     0.398 A 
HETATM   17  O   UNL     1      15.375   5.192  93.148  1.00  0.00    -0.136 OA
HETATM   18  N   UNL     1      16.436   4.265  93.719  1.00  0.00     0.142 N 
HETATM   19  HN  UNL     1      17.029   4.965  93.371  1.00  0.00     0.338 HD
BRANCH  18  20
HETATM   20  S   UNL     1      16.670   2.956  94.124  1.00  0.00     0.076 SA
HETATM   21  H   UNL     1      16.305   2.665  95.217  1.00  0.00     0.136 HD
ENDBRANCH  18  20
ENDBRANCH  11  16
ENDBRANCH   9  11
ENDBRANCH   1   7
BRANCH   4  22
HETATM   22  C   UNL     1       7.724   8.187  91.213  1.00  0.00    -0.059 C 
HETATM   23  C   UNL     1       6.954   9.072  90.950  1.00  0.00    -0.059 C 
BRANCH  23  24
HETATM   24  C   UNL     1       6.038  10.125  90.637  1.00  0.00     0.042 A 
HETATM   25  C   UNL     1       4.796  10.178  91.270  1.00  0.00     0.008 A 
HETATM   26  C   UNL     1       3.901  11.203  90.964  1.00  0.00    -0.002 A 
HETATM   27  C   UNL     1       4.250  12.176  90.027  1.00  0.00     0.011 A 
HETATM   28  C   UNL     1       5.493  12.122  89.395  1.00  0.00    -0.002 A 
HETATM   29  C   UNL     1       6.387  11.096  89.701  1.00  0.00     0.008 A 
BRANCH  27  30
HETATM   30  C   UNL     1       3.294  13.273  89.702  1.00  0.00     0.277 C 
BRANCH  30  31
HETATM   31  N   UNL     1       3.119  14.207  90.814  1.00  0.00     0.147 N 
HETATM   32  C   UNL     1       2.188  13.660  91.811  1.00  0.00     0.283 C 
HETATM   33  C   UNL     1       2.031  14.646  92.965  1.00  0.00     0.178 C 
HETATM   34  O   UNL     1       3.299  14.919  93.563  1.00  0.00    -0.350 OA
HETATM   35  C   UNL     1       4.201  15.479  92.608  1.00  0.00     0.178 C 
HETATM   36  C   UNL     1       4.410  14.514  91.445  1.00  0.00     0.283 C 
ENDBRANCH  30  31
ENDBRANCH  27  30
ENDBRANCH  23  24
ENDBRANCH   4  22
TORSDOF 10
ENDMDL
MODEL 7
REMARK VINA RESULT:      -5.3      3.739     12.574
REMARK  10 active torsions:
REMARK  status: ('A' for Active; 'I' for Inactive)
REMARK    1  A    between atoms: O_2  and  C_16 
REMARK    2  A    between atoms: N_5  and  C_9 
REMARK    3  A    between atoms: N_6  and  C_13 
REMARK       I    between atoms: N_6  and  C_22 
REMARK    4  A    between atoms: C_9  and  C_12 
REMARK    5  A    between atoms: C_13  and  C_16 
REMARK    6  A    between atoms: C_13  and  C_21 
REMARK    7  A    between atoms: C_19  and  C_24 
REMARK    8  A    between atoms: C_22  and  C_23 
REMARK    9  A    between atoms: C_27  and  C_30 
REMARK   10  A    between atoms: N_33  and  S_34 
ROOT
HETATM    1  C   UNL     1      10.409   4.747  92.687  1.00  0.00     0.056 A 
HETATM    2  C   UNL     1       9.353   4.535  91.825  1.00  0.00     0.005 A 
HETATM    3  C   UNL     1      10.504   5.878  93.471  1.00  0.00     0.005 A 
HETATM    4  C   UNL     1       8.420   6.650  92.524  1.00  0.00     0.042 A 
HETATM    5  C   UNL     1       8.347   5.497  91.742  1.00  0.00     0.008 A 
HETATM    6  C   UNL     1       9.498   6.841  93.388  1.00  0.00     0.008 A 
ENDROOT
BRANCH   1   7
HETATM    7  C   UNL     1      11.479   3.720  92.777  1.00  0.00     0.254 C 
HETATM    8  O   UNL     1      11.186   2.535  92.643  1.00  0.00    -0.268 OA
HETATM    9  N   UNL     1      12.765   4.199  92.987  1.00  0.00    -0.337 N 
HETATM   10  HN  UNL     1      12.935   5.195  93.063  1.00  0.00     0.164 HD
BRANCH   9  11
HETATM   11  C   UNL     1      13.912   3.331  93.072  1.00  0.00     0.172 C 
BRANCH  11  12
HETATM   12  C   UNL     1      14.344   2.782  91.707  1.00  0.00     0.136 C 
HETATM   13  C   UNL     1      14.098   3.773  90.575  1.00  0.00     0.034 C 
BRANCH  12  14
HETATM   14  O   UNL     1      15.732   2.454  91.742  1.00  0.00    -0.383 OA
HETATM   15  H   UNL     1      16.069   2.648  92.633  1.00  0.00     0.210 HD
ENDBRANCH  12  14
ENDBRANCH  11  12
BRANCH  11  16
HETATM   16  C   UNL     1      15.039   4.113  93.738  1.00  0.00     0.398 A 
HETATM   17  O   UNL     1      15.532   5.127  93.246  1.00  0.00    -0.136 OA
HETATM   18  N   UNL     1      16.624   4.213  93.778  1.00  0.00     0.142 N 
HETATM   19  HN  UNL     1      17.193   4.949  93.465  1.00  0.00     0.338 HD
BRANCH  18  20
HETATM   20  S   UNL     1      16.904   2.896  94.124  1.00  0.00     0.076 SA
HETATM   21  H   UNL     1      17.698   2.732  94.993  1.00  0.00     0.136 HD
ENDBRANCH  18  20
ENDBRANCH  11  16
ENDBRANCH   9  11
ENDBRANCH   1   7
BRANCH   4  22
HETATM   22  C   UNL     1       7.390   7.638  92.437  1.00  0.00    -0.059 C 
HETATM   23  C   UNL     1       6.524   8.469  92.363  1.00  0.00    -0.059 C 
BRANCH  23  24
HETATM   24  C   UNL     1       5.493   9.457  92.276  1.00  0.00     0.042 A 
HETATM   25  C   UNL     1       5.443  10.495  93.206  1.00  0.00     0.008 A 
HETATM   26  C   UNL     1       4.437  11.457  93.123  1.00  0.00    -0.002 A 
HETATM   27  C   UNL     1       3.482  11.382  92.109  1.00  0.00     0.011 A 
HETATM   28  C   UNL     1       3.534  10.343  91.179  1.00  0.00    -0.002 A 
HETATM   29  C   UNL     1       4.540   9.381  91.263  1.00  0.00     0.008 A 
BRANCH  27  30
HETATM   30  C   UNL     1       2.409  12.412  92.019  1.00  0.00     0.277 C 
BRANCH  30  31
HETATM   31  N   UNL     1       2.907  13.695  91.525  1.00  0.00     0.147 N 
HETATM   32  C   UNL     1       3.891  14.264  92.457  1.00  0.00     0.283 C 
HETATM   33  C   UNL     1       4.405  15.596  91.916  1.00  0.00     0.178 C 
HETATM   34  O   UNL     1       4.987  15.416  90.623  1.00  0.00    -0.350 OA
HETATM   35  C   UNL     1       4.028  14.891  89.704  1.00  0.00     0.178 C 
HETATM   36  C   UNL     1       3.505  13.544  90.192  1.00  0.00     0.283 C 
ENDBRANCH  30  31
ENDBRANCH  27  30
ENDBRANCH  23  24
ENDBRANCH   4  22
TORSDOF 10
ENDMDL
MODEL 8
REMARK VINA RESULT:      -5.2      2.693      3.568
REMARK  10 active torsions:
REMARK  status: ('A' for Active; 'I' for Inactive)
REMARK    1  A    between atoms: O_2  and  C_16 
REMARK    2  A    between atoms: N_5  and  C_9 
REMARK    3  A    between atoms: N_6  and  C_13 
REMARK       I    between atoms: N_6  and  C_22 
REMARK    4  A    between atoms: C_9  and  C_12 
REMARK    5  A    between atoms: C_13  and  C_16 
REMARK    6  A    between atoms: C_13  and  C_21 
REMARK    7  A    between atoms: C_19  and  C_24 
REMARK    8  A    between atoms: C_22  and  C_23 
REMARK    9  A    between atoms: C_27  and  C_30 
REMARK   10  A    between atoms: N_33  and  S_34 
ROOT
HETATM    1  C   UNL     1       6.333   7.749  88.098  1.00  0.00     0.056 A 
HETATM    2  C   UNL     1       7.642   8.173  87.995  1.00  0.00     0.005 A 
HETATM    3  C   UNL     1       5.978   6.622  88.809  1.00  0.00     0.005 A 
HETATM    4  C   UNL     1       8.307   6.293  89.358  1.00  0.00     0.042 A 
HETATM    5  C   UNL     1       8.641   7.437  88.632  1.00  0.00     0.008 A 
HETATM    6  C   UNL     1       6.976   5.885  89.447  1.00  0.00     0.008 A 
ENDROOT
BRANCH   1   7
HETATM    7  C   UNL     1       5.269   8.534  87.420  1.00  0.00     0.254 C 
HETATM    8  O   UNL     1       5.188   8.502  86.195  1.00  0.00    -0.268 OA
HETATM    9  N   UNL     1       4.413   9.241  88.252  1.00  0.00    -0.337 N 
HETATM   10  HN  UNL     1       4.525   9.200  89.259  1.00  0.00     0.164 HD
BRANCH   9  11
HETATM   11  C   UNL     1       3.317  10.030  87.748  1.00  0.00     0.172 C 
BRANCH  11  12
HETATM   12  C   UNL     1       1.956   9.565  88.282  1.00  0.00     0.136 C 
HETATM   13  C   UNL     1       1.297   8.529  87.378  1.00  0.00     0.034 C 
BRANCH  12  14
HETATM   14  O   UNL     1       2.120   9.006  89.585  1.00  0.00    -0.383 OA
HETATM   15  H   UNL     1       1.408   8.361  89.732  1.00  0.00     0.210 HD
ENDBRANCH  12  14
ENDBRANCH  11  12
BRANCH  11  16
HETATM   16  C   UNL     1       3.587  11.487  88.110  1.00  0.00     0.398 A 
HETATM   17  O   UNL     1       4.646  12.056  87.852  1.00  0.00    -0.136 OA
HETATM   18  N   UNL     1       4.200  12.385  89.268  1.00  0.00     0.142 N 
HETATM   19  HN  UNL     1       5.014  12.933  89.243  1.00  0.00     0.338 HD
BRANCH  18  20
HETATM   20  S   UNL     1       3.404  11.939  90.317  1.00  0.00     0.076 SA
HETATM   21  H   UNL     1       2.324  12.425  90.408  1.00  0.00     0.136 HD
ENDBRANCH  18  20
ENDBRANCH  11  16
ENDBRANCH   9  11
ENDBRANCH   1   7
BRANCH   4  22
HETATM   22  C   UNL     1       9.332   5.537  90.009  1.00  0.00    -0.059 C 
HETATM   23  C   UNL     1      10.193   4.902  90.557  1.00  0.00    -0.059 C 
BRANCH  23  24
HETATM   24  C   UNL     1      11.218   4.146  91.209  1.00  0.00     0.042 A 
HETATM   25  C   UNL     1      10.902   3.349  92.309  1.00  0.00     0.008 A 
HETATM   26  C   UNL     1      11.901   2.613  92.946  1.00  0.00    -0.002 A 
HETATM   27  C   UNL     1      13.215   2.673  92.481  1.00  0.00     0.011 A 
HETATM   28  C   UNL     1      13.529   3.470  91.380  1.00  0.00    -0.002 A 
HETATM   29  C   UNL     1      12.530   4.206  90.744  1.00  0.00     0.008 A 
BRANCH  27  30
HETATM   30  C   UNL     1      14.282   1.885  93.161  1.00  0.00     0.277 C 
BRANCH  30  31
HETATM   31  N   UNL     1      15.334   2.734  93.716  1.00  0.00     0.147 N 
HETATM   32  C   UNL     1      16.627   2.442  93.081  1.00  0.00     0.283 C 
HETATM   33  C   UNL     1      17.707   3.348  93.667  1.00  0.00     0.178 C 
HETATM   34  O   UNL     1      17.359   4.721  93.483  1.00  0.00    -0.350 OA
HETATM   35  C   UNL     1      16.118   5.020  94.124  1.00  0.00     0.178 C 
HETATM   36  C   UNL     1      15.001   4.155  93.550  1.00  0.00     0.283 C 
ENDBRANCH  30  31
ENDBRANCH  27  30
ENDBRANCH  23  24
ENDBRANCH   4  22
TORSDOF 10
ENDMDL
MODEL 9
REMARK VINA RESULT:      -4.0      2.372      3.320
REMARK  10 active torsions:
REMARK  status: ('A' for Active; 'I' for Inactive)
REMARK    1  A    between atoms: O_2  and  C_16 
REMARK    2  A    between atoms: N_5  and  C_9 
REMARK    3  A    between atoms: N_6  and  C_13 
REMARK       I    between atoms: N_6  and  C_22 
REMARK    4  A    between atoms: C_9  and  C_12 
REMARK    5  A    between atoms: C_13  and  C_16 
REMARK    6  A    between atoms: C_13  and  C_21 
REMARK    7  A    between atoms: C_19  and  C_24 
REMARK    8  A    between atoms: C_22  and  C_23 
REMARK    9  A    between atoms: C_27  and  C_30 
REMARK   10  A    between atoms: N_33  and  S_34 
ROOT
HETATM    1  C   UNL     1       6.106   9.979  91.120  1.00  0.00     0.056 A 
HETATM    2  C   UNL     1       6.081   9.356  92.350  1.00  0.00     0.005 A 
HETATM    3  C   UNL     1       7.049   9.676  90.160  1.00  0.00     0.005 A 
HETATM    4  C   UNL     1       8.007   8.062  91.680  1.00  0.00     0.042 A 
HETATM    5  C   UNL     1       7.042   8.386  92.634  1.00  0.00     0.008 A 
HETATM    6  C   UNL     1       8.011   8.707  90.443  1.00  0.00     0.008 A 
ENDROOT
BRANCH   1   7
HETATM    7  C   UNL     1       5.080  11.011  90.818  1.00  0.00     0.254 C 
HETATM    8  O   UNL     1       4.814  11.859  91.666  1.00  0.00    -0.268 OA
HETATM    9  N   UNL     1       4.507  10.946  89.555  1.00  0.00    -0.337 N 
HETATM   10  HN  UNL     1       4.796  10.232  88.897  1.00  0.00     0.164 HD
BRANCH   9  11
HETATM   11  C   UNL     1       3.516  11.890  89.104  1.00  0.00     0.172 C 
BRANCH  11  12
HETATM   12  C   UNL     1       4.111  13.267  88.783  1.00  0.00     0.136 C 
HETATM   13  C   UNL     1       3.489  14.381  89.618  1.00  0.00     0.034 C 
BRANCH  12  14
HETATM   14  O   UNL     1       5.519  13.245  89.015  1.00  0.00    -0.383 OA
HETATM   15  H   UNL     1       5.954  12.907  88.214  1.00  0.00     0.210 HD
ENDBRANCH  12  14
ENDBRANCH  11  12
BRANCH  11  16
HETATM   16  C   UNL     1       2.820  11.289  87.887  1.00  0.00     0.398 A 
HETATM   17  O   UNL     1       1.618  11.425  87.668  1.00  0.00    -0.136 OA
HETATM   18  N   UNL     1       2.041   9.985  87.422  1.00  0.00     0.142 N 
HETATM   19  HN  UNL     1       1.095   9.901  87.175  1.00  0.00     0.338 HD
BRANCH  18  20
HETATM   20  S   UNL     1       3.016   9.043  87.728  1.00  0.00     0.076 SA
HETATM   21  H   UNL     1       2.687   8.152  88.443  1.00  0.00     0.136 HD
ENDBRANCH  18  20
ENDBRANCH  11  16
ENDBRANCH   9  11
ENDBRANCH   1   7
BRANCH   4  22
HETATM   22  C   UNL     1       8.995   7.070  91.972  1.00  0.00    -0.059 C 
HETATM   23  C   UNL     1       9.825   6.235  92.217  1.00  0.00    -0.059 C 
BRANCH  23  24
HETATM   24  C   UNL     1      10.813   5.242  92.509  1.00  0.00     0.042 A 
HETATM   25  C   UNL     1      11.360   4.481  91.476  1.00  0.00     0.008 A 
HETATM   26  C   UNL     1      12.322   3.512  91.760  1.00  0.00    -0.002 A 
HETATM   27  C   UNL     1      12.738   3.306  93.076  1.00  0.00     0.011 A 
HETATM   28  C   UNL     1      12.190   4.070  94.107  1.00  0.00    -0.002 A 
HETATM   29  C   UNL     1      11.227   5.038  93.823  1.00  0.00     0.008 A 
BRANCH  27  30
HETATM   30  C   UNL     1      13.768   2.272  93.378  1.00  0.00     0.277 C 
BRANCH  30  31
HETATM   31  N   UNL     1      14.989   2.848  93.936  1.00  0.00     0.147 N 
HETATM   32  C   UNL     1      16.165   2.061  93.539  1.00  0.00     0.283 C 
HETATM   33  C   UNL     1      17.428   2.688  94.124  1.00  0.00     0.178 C 
HETATM   34  O   UNL     1      17.562   4.040  93.683  1.00  0.00    -0.350 OA
HETATM   35  C   UNL     1      16.437   4.820  94.092  1.00  0.00     0.178 C 
HETATM   36  C   UNL     1      15.151   4.245  93.508  1.00  0.00     0.283 C 
ENDBRANCH  30  31
ENDBRANCH  27  30
ENDBRANCH  23  24
ENDBRANCH   4  22
TORSDOF 10
ENDMDL
