MODEL 1
REMARK VINA RESULT:      -6.7      0.000      0.000
REMARK  14 active torsions:
REMARK  status: ('A' for Active; 'I' for Inactive)
REMARK    1  A    between atoms: O_2  and  C_18 
REMARK    2  A    between atoms: C_5  and  C_8 
REMARK    3  A    between atoms: C_5  and  O_35 
REMARK    4  A    between atoms: C_5  and  C_36 
REMARK    5  A    between atoms: N_6  and  C_11 
REMARK    6  A    between atoms: N_7  and  C_15 
REMARK       I    between atoms: N_7  and  C_24 
REMARK    7  A    between atoms: C_8  and  C_23 
REMARK    8  A    between atoms: C_11  and  C_14 
REMARK    9  A    between atoms: C_15  and  C_18 
REMARK   10  A    between atoms: C_15  and  C_23 
REMARK   11  A    between atoms: C_21  and  C_26 
REMARK   12  A    between atoms: C_24  and  C_25 
REMARK   13  A    between atoms: C_29  and  C_32 
REMARK   14  A    between atoms: C_36  and  O_39 
ROOT
HETATM    1  O   UNL     1      16.608   3.536  93.860  1.00  0.00    -0.350 OA
HETATM    2  N   UNL     1      14.014   2.916  92.868  1.00  0.00     0.147 N 
HETATM    3  C   UNL     1      15.051   1.884  93.002  1.00  0.00     0.283 C 
HETATM    4  C   UNL     1      14.635   4.226  92.630  1.00  0.00     0.283 C 
HETATM    5  C   UNL     1      16.015   2.264  94.124  1.00  0.00     0.178 C 
HETATM    6  C   UNL     1      15.608   4.550  93.758  1.00  0.00     0.178 C 
ENDROOT
BRANCH   2   7
HETATM    7  C   UNL     1      13.084   2.578  91.791  1.00  0.00     0.277 C 
BRANCH   7   8
HETATM    8  C   UNL     1      11.934   3.524  91.715  1.00  0.00     0.011 A 
HETATM    9  C   UNL     1      11.634   4.161  90.511  1.00  0.00    -0.002 A 
HETATM   10  C   UNL     1      10.560   5.047  90.439  1.00  0.00     0.008 A 
HETATM   11  C   UNL     1       9.785   5.295  91.572  1.00  0.00     0.042 A 
HETATM   12  C   UNL     1      10.084   4.659  92.776  1.00  0.00     0.008 A 
HETATM   13  C   UNL     1      11.159   3.773  92.848  1.00  0.00    -0.002 A 
BRANCH  11  14
HETATM   14  C   UNL     1       8.682   6.203  91.498  1.00  0.00    -0.059 C 
HETATM   15  C   UNL     1       7.755   6.966  91.436  1.00  0.00    -0.059 C 
BRANCH  15  16
HETATM   16  C   UNL     1       6.653   7.874  91.362  1.00  0.00     0.042 A 
HETATM   17  C   UNL     1       6.768   9.155  91.901  1.00  0.00     0.008 A 
HETATM   18  C   UNL     1       5.694  10.041  91.826  1.00  0.00     0.005 A 
HETATM   19  C   UNL     1       4.530   9.627  91.213  1.00  0.00     0.056 A 
HETATM   20  C   UNL     1       4.391   8.366  90.673  1.00  0.00     0.005 A 
HETATM   21  C   UNL     1       5.465   7.479  90.747  1.00  0.00     0.008 A 
BRANCH  19  22
HETATM   22  C   UNL     1       3.385  10.571  91.135  1.00  0.00     0.254 C 
HETATM   23  O   UNL     1       2.319  10.183  90.661  1.00  0.00    -0.268 OA
HETATM   24  N   UNL     1       3.610  11.844  91.640  1.00  0.00    -0.335 N 
HETATM   25  HN  UNL     1       4.510  12.085  92.039  1.00  0.00     0.164 HD
BRANCH  24  26
HETATM   26  C   UNL     1       2.592  12.863  91.658  1.00  0.00     0.169 C 
BRANCH  26  27
HETATM   27  C   UNL     1       2.524  13.611  92.995  1.00  0.00     0.138 C 
HETATM   28  C   UNL     1       3.871  13.659  93.707  1.00  0.00     0.034 C 
BRANCH  27  29
HETATM   29  O   UNL     1       2.069  14.945  92.773  1.00  0.00    -0.383 OA
HETATM   30  H   UNL     1       2.056  15.409  93.628  1.00  0.00     0.210 HD
ENDBRANCH  27  29
ENDBRANCH  26  27
BRANCH  26  31
HETATM   31  C   UNL     1       2.869  13.819  90.502  1.00  0.00     0.194 C 
HETATM   32  O   UNL     1       1.977  14.377  89.865  1.00  0.00    -0.289 OA
BRANCH  31  33
HETATM   33  C   UNL     1       4.213  13.943  90.242  1.00  0.00     0.053 C 
BRANCH  33  34
HETATM   34  C   UNL     1       4.555  14.194  88.906  1.00  0.00     0.220 C 
BRANCH  34  35
HETATM   35  O   UNL     1       5.567  14.921  88.903  1.00  0.00    -0.371 OA
HETATM   36  H   UNL     1       5.755  14.891  89.828  1.00  0.00     0.211 HD
ENDBRANCH  34  35
BRANCH  34  37
HETATM   37  C   UNL     1       4.735  13.026  88.145  1.00  0.00     0.185 C 
HETATM   38  O   UNL     1       6.018  13.321  88.289  1.00  0.00    -0.647 OA
BRANCH  37  39
HETATM   39  O   UNL     1       4.039  12.217  87.608  1.00  0.00    -0.774 OA
HETATM   40  H   UNL     1       3.090  12.686  87.200  1.00  0.00     0.167 HD
ENDBRANCH  37  39
ENDBRANCH  34  37
ENDBRANCH  33  34
ENDBRANCH  31  33
ENDBRANCH  26  31
ENDBRANCH  24  26
ENDBRANCH  19  22
ENDBRANCH  15  16
ENDBRANCH  11  14
ENDBRANCH   7   8
ENDBRANCH   2   7
TORSDOF 14
ENDMDL
