MODEL 1
REMARK VINA RESULT:      -7.1      0.000      0.000
REMARK  9 active torsions:
REMARK  status: ('A' for Active; 'I' for Inactive)
REMARK    1  A    between atoms: O_2  and  C_17 
REMARK    2  A    between atoms: N_5  and  C_10 
REMARK    3  A    between atoms: N_6  and  C_14 
REMARK       I    between atoms: N_6  and  C_23 
REMARK       I    between atoms: N_7  and  C_22 
REMARK    4  A    between atoms: C_10  and  C_13 
REMARK    5  A    between atoms: C_14  and  C_17 
REMARK    6  A    between atoms: C_14  and  C_22 
REMARK    7  A    between atoms: C_20  and  C_25 
REMARK    8  A    between atoms: C_23  and  C_24 
REMARK    9  A    between atoms: C_28  and  C_31 
ROOT
HETATM    1  O   UNL     1      16.859   3.281  93.431  1.00  0.00    -0.388 OA
HETATM    2  N   UNL     1      14.062   2.820  93.183  1.00  0.00     0.096 N 
HETATM    3  C   UNL     1      15.010   1.711  93.358  1.00  0.00     0.299 C 
HETATM    4  C   UNL     1      14.719   3.942  92.499  1.00  0.00     0.299 C 
HETATM    5  C   UNL     1      16.238   2.197  94.124  1.00  0.00     0.198 C 
HETATM    6  C   UNL     1      15.953   4.375  93.284  1.00  0.00     0.198 C 
ENDROOT
BRANCH   2   7
HETATM    7  C   UNL     1      12.881   2.379  92.441  1.00  0.00     0.311 C 
BRANCH   7   8
HETATM    8  C   UNL     1      11.982   3.511  92.079  1.00  0.00    -0.030 A 
HETATM    9  C   UNL     1      11.756   3.820  90.737  1.00  0.00     0.010 A 
HETATM   10  C   UNL     1      10.917   4.881  90.397  1.00  0.00     0.021 A 
HETATM   11  C   UNL     1      10.302   5.631  91.400  1.00  0.00     0.018 A 
HETATM   12  C   UNL     1      10.527   5.323  92.740  1.00  0.00     0.021 A 
HETATM   13  C   UNL     1      11.367   4.263  93.080  1.00  0.00     0.010 A 
BRANCH  11  14
HETATM   14  C   UNL     1       9.440   6.718  91.051  1.00  0.00    -0.061 C 
HETATM   15  C   UNL     1       8.715   7.632  90.758  1.00  0.00    -0.061 C 
BRANCH  15  16
HETATM   16  C   UNL     1       7.854   8.718  90.409  1.00  0.00     0.018 A 
HETATM   17  C   UNL     1       6.496   8.659  90.724  1.00  0.00     0.022 A 
HETATM   18  C   UNL     1       5.656   9.720  90.386  1.00  0.00     0.018 A 
HETATM   19  C   UNL     1       6.193  10.816  89.742  1.00  0.00     0.032 A 
HETATM   20  C   UNL     1       7.531  10.898  89.420  1.00  0.00     0.018 A 
HETATM   21  C   UNL     1       8.372   9.837  89.757  1.00  0.00     0.022 A 
BRANCH  19  22
HETATM   22  C   UNL     1       5.297  11.945  89.381  1.00  0.00     0.252 C 
HETATM   23  O   UNL     1       5.081  12.183  88.195  1.00  0.00    -0.268 OA
HETATM   24  N   UNL     1       4.742  12.645  90.443  1.00  0.00    -0.342 N 
HETATM   25  H   UNL     1       4.947  12.375  91.398  1.00  0.00     0.163 HD
BRANCH  24  26
HETATM   26  C   UNL     1       3.836  13.749  90.255  1.00  0.00     0.199 C 
BRANCH  26  27
HETATM   27  C   UNL     1       2.674  13.741  91.257  1.00  0.00     0.145 C 
HETATM   28  C   UNL     1       2.371  12.344  91.787  1.00  0.00     0.042 C 
BRANCH  27  29
HETATM   29  O   UNL     1       2.985  14.597  92.356  1.00  0.00    -0.393 OA
HETATM   30  H   UNL     1       3.765  14.237  92.811  1.00  0.00     0.210 HD
ENDBRANCH  27  29
ENDBRANCH  26  27
BRANCH  26  31
HETATM   31  C   UNL     1       4.645  15.038  90.355  1.00  0.00     0.220 C 
HETATM   32  O   UNL     1       4.843  15.624  91.418  1.00  0.00    -0.278 OA
HETATM   33  N   UNL     1       5.082  15.474  89.127  1.00  0.00    -0.271 NA
HETATM   34  H   UNL     1       4.862  15.066  88.226  1.00  0.00     0.127 HD
HETATM   35  H   UNL     1       4.634  16.577  88.384  1.00  0.00     0.127 HD
ENDBRANCH  26  31
ENDBRANCH  24  26
ENDBRANCH  19  22
ENDBRANCH  15  16
ENDBRANCH  11  14
ENDBRANCH   7   8
ENDBRANCH   2   7
TORSDOF 9
ENDMDL
