MODEL 1
REMARK VINA RESULT:      -7.2      0.000      0.000
REMARK  9 active torsions:
REMARK  status: ('A' for Active; 'I' for Inactive)
REMARK    1  A    between atoms: O_2  and  C_17 
REMARK    2  A    between atoms: N_5  and  C_10 
REMARK    3  A    between atoms: N_6  and  C_14 
REMARK       I    between atoms: N_6  and  C_23 
REMARK       I    between atoms: N_7  and  C_22 
REMARK    4  A    between atoms: C_10  and  C_13 
REMARK    5  A    between atoms: C_14  and  C_17 
REMARK    6  A    between atoms: C_14  and  C_22 
REMARK    7  A    between atoms: C_20  and  C_25 
REMARK    8  A    between atoms: C_23  and  C_24 
REMARK    9  A    between atoms: C_28  and  C_31 
ROOT
HETATM    1  O   UNL     1      16.178   4.092  94.091  1.00  0.00    -0.388 OA
HETATM    2  N   UNL     1      14.305   2.676  92.483  1.00  0.00     0.096 N 
HETATM    3  C   UNL     1      14.371   4.144  92.473  1.00  0.00     0.299 C 
HETATM    4  C   UNL     1      14.741   2.161  93.789  1.00  0.00     0.299 C 
HETATM    5  C   UNL     1      15.787   4.600  92.815  1.00  0.00     0.198 C 
HETATM    6  C   UNL     1      16.147   2.664  94.100  1.00  0.00     0.198 C 
ENDROOT
BRANCH   2   7
HETATM    7  C   UNL     1      12.954   2.216  92.168  1.00  0.00     0.311 C 
BRANCH   7   8
HETATM    8  C   UNL     1      12.027   3.343  91.862  1.00  0.00    -0.030 A 
HETATM    9  C   UNL     1      11.862   3.770  90.544  1.00  0.00     0.010 A 
HETATM   10  C   UNL     1      10.997   4.826  90.257  1.00  0.00     0.021 A 
HETATM   11  C   UNL     1      10.296   5.452  91.287  1.00  0.00     0.018 A 
HETATM   12  C   UNL     1      10.460   5.026  92.603  1.00  0.00     0.021 A 
HETATM   13  C   UNL     1      11.325   3.970  92.891  1.00  0.00     0.010 A 
BRANCH  11  14
HETATM   14  C   UNL     1       9.407   6.534  90.992  1.00  0.00    -0.061 C 
HETATM   15  C   UNL     1       8.661   7.443  90.743  1.00  0.00    -0.061 C 
BRANCH  15  16
HETATM   16  C   UNL     1       7.773   8.524  90.447  1.00  0.00     0.018 A 
HETATM   17  C   UNL     1       6.393   8.330  90.516  1.00  0.00     0.022 A 
HETATM   18  C   UNL     1       5.527   9.386  90.230  1.00  0.00     0.018 A 
HETATM   19  C   UNL     1       6.060  10.610  89.883  1.00  0.00     0.032 A 
HETATM   20  C   UNL     1       7.420  10.826  89.808  1.00  0.00     0.018 A 
HETATM   21  C   UNL     1       8.287   9.771  90.093  1.00  0.00     0.022 A 
BRANCH  19  22
HETATM   22  C   UNL     1       5.137  11.733  89.576  1.00  0.00     0.252 C 
HETATM   23  O   UNL     1       4.717  11.868  88.429  1.00  0.00    -0.268 OA
HETATM   24  N   UNL     1       4.795  12.548  90.646  1.00  0.00    -0.342 N 
HETATM   25  H   UNL     1       5.162  12.360  91.572  1.00  0.00     0.163 HD
BRANCH  24  26
HETATM   26  C   UNL     1       3.892  13.663  90.514  1.00  0.00     0.199 C 
BRANCH  26  27
HETATM   27  C   UNL     1       2.954  13.813  91.718  1.00  0.00     0.145 C 
HETATM   28  C   UNL     1       2.100  12.572  91.951  1.00  0.00     0.042 C 
BRANCH  27  29
HETATM   29  O   UNL     1       3.722  14.074  92.892  1.00  0.00    -0.393 OA
HETATM   30  H   UNL     1       4.394  14.742  92.675  1.00  0.00     0.210 HD
ENDBRANCH  27  29
ENDBRANCH  26  27
BRANCH  26  31
HETATM   31  C   UNL     1       4.730  14.920  90.304  1.00  0.00     0.220 C 
HETATM   32  O   UNL     1       5.148  15.609  91.233  1.00  0.00    -0.278 OA
HETATM   33  N   UNL     1       4.923  15.200  88.973  1.00  0.00    -0.271 NA
HETATM   34  H   UNL     1       4.520  14.706  88.185  1.00  0.00     0.127 HD
HETATM   35  H   UNL     1       4.358  16.233  88.209  1.00  0.00     0.127 HD
ENDBRANCH  26  31
ENDBRANCH  24  26
ENDBRANCH  19  22
ENDBRANCH  15  16
ENDBRANCH  11  14
ENDBRANCH   7   8
ENDBRANCH   2   7
TORSDOF 9
ENDMDL
