MODEL 1
REMARK VINA RESULT:      -7.0      0.000      0.000
REMARK  11 active torsions:
REMARK  status: ('A' for Active; 'I' for Inactive)
REMARK    1  A    between atoms: O_2  and  C_18 
REMARK    2  A    between atoms: O_5  and  P_8 
REMARK    3  A    between atoms: N_6  and  C_11 
REMARK    4  A    between atoms: N_7  and  C_15 
REMARK       I    between atoms: N_7  and  C_24 
REMARK    5  A    between atoms: P_8  and  C_23 
REMARK    6  A    between atoms: C_11  and  C_14 
REMARK    7  A    between atoms: C_15  and  C_18 
REMARK    8  A    between atoms: C_15  and  C_23 
REMARK    9  A    between atoms: C_21  and  C_26 
REMARK   10  A    between atoms: C_24  and  C_25 
REMARK   11  A    between atoms: C_29  and  C_32 
ROOT
HETATM    1  O   UNL     1      16.390   4.226  94.111  1.00  0.00     0.000 OA
HETATM    2  N   UNL     1      14.525   2.656  92.643  1.00  0.00     0.000 N 
HETATM    3  C   UNL     1      14.473   4.124  92.626  1.00  0.00     0.000 C 
HETATM    4  C   UNL     1      15.092   2.186  93.915  1.00  0.00     0.000 C 
HETATM    5  C   UNL     1      15.870   4.693  92.865  1.00  0.00     0.000 C 
HETATM    6  C   UNL     1      16.473   2.801  94.124  1.00  0.00     0.000 C 
ENDROOT
BRANCH   2   7
HETATM    7  C   UNL     1      13.195   2.089  92.427  1.00  0.00     0.000 C 
BRANCH   7   8
HETATM    8  C   UNL     1      12.183   3.129  92.085  1.00  0.00     0.000 A 
HETATM    9  C   UNL     1      11.676   3.962  93.083  1.00  0.00     0.000 A 
HETATM   10  C   UNL     1      10.727   4.934  92.765  1.00  0.00     0.000 A 
HETATM   11  C   UNL     1      10.288   5.073  91.449  1.00  0.00     0.000 A 
HETATM   12  C   UNL     1      10.793   4.242  90.452  1.00  0.00     0.000 A 
HETATM   13  C   UNL     1      11.741   3.270  90.769  1.00  0.00     0.000 A 
BRANCH  11  14
HETATM   14  C   UNL     1       9.317   6.072  91.123  1.00  0.00     0.000 C 
HETATM   15  C   UNL     1       8.500   6.910  90.849  1.00  0.00     0.000 C 
BRANCH  15  16
HETATM   16  C   UNL     1       7.529   7.908  90.523  1.00  0.00     0.000 A 
HETATM   17  C   UNL     1       7.371   9.022  91.349  1.00  0.00     0.000 A 
HETATM   18  C   UNL     1       6.426   9.997  91.030  1.00  0.00     0.000 A 
HETATM   19  C   UNL     1       5.661   9.836  89.894  1.00  0.00     0.000 A 
HETATM   20  C   UNL     1       5.797   8.745  89.062  1.00  0.00     0.000 A 
HETATM   21  C   UNL     1       6.742   7.769  89.380  1.00  0.00     0.000 A 
BRANCH  19  22
HETATM   22  C   UNL     1       4.652  10.874  89.555  1.00  0.00     0.000 C 
HETATM   23  O   UNL     1       3.682  10.566  88.868  1.00  0.00     0.000 OA
HETATM   24  N   UNL     1       4.883  12.139  90.078  1.00  0.00     0.000 N 
HETATM   25  HN  UNL     1       5.694  12.314  90.659  1.00  0.00     0.000 HD
BRANCH  24  26
HETATM   26  C   UNL     1       3.984  13.244  89.860  1.00  0.00     0.000 C 
BRANCH  26  27
HETATM   27  C   UNL     1       3.301  13.717  91.149  1.00  0.00     0.000 C 
HETATM   28  C   UNL     1       2.437  12.633  91.784  1.00  0.00     0.000 C 
BRANCH  27  29
HETATM   29  O   UNL     1       4.291  14.131  92.090  1.00  0.00     0.000 OA
HETATM   30  H   UNL     1       3.839  14.432  92.896  1.00  0.00     0.000 HD
ENDBRANCH  27  29
ENDBRANCH  26  27
BRANCH  26  31
HETATM   31  C   UNL     1       4.780  14.370  89.208  1.00  0.00     0.000 C 
HETATM   32  O   UNL     1       4.905  15.483  89.717  1.00  0.00     0.000 OA
BRANCH  31  33
HETATM   33  P   UNL     1       5.296  14.003  87.989  1.00  0.00     0.000 P 
HETATM   34  H   UNL     1       5.305  15.121  87.180  1.00  0.00     0.000 HD
BRANCH  33  35
HETATM   35  O   UNL     1       4.603  12.989  87.313  1.00  0.00     0.000 OA
HETATM   36  H   UNL     1       3.984  13.523  86.786  1.00  0.00     0.000 HD
ENDBRANCH  33  35
ENDBRANCH  31  33
ENDBRANCH  26  31
ENDBRANCH  24  26
ENDBRANCH  19  22
ENDBRANCH  15  16
ENDBRANCH  11  14
ENDBRANCH   7   8
ENDBRANCH   2   7
TORSDOF 11
ENDMDL
MODEL 2
REMARK VINA RESULT:      -6.5      1.784      2.835
REMARK  11 active torsions:
REMARK  status: ('A' for Active; 'I' for Inactive)
REMARK    1  A    between atoms: O_2  and  C_18 
REMARK    2  A    between atoms: O_5  and  P_8 
REMARK    3  A    between atoms: N_6  and  C_11 
REMARK    4  A    between atoms: N_7  and  C_15 
REMARK       I    between atoms: N_7  and  C_24 
REMARK    5  A    between atoms: P_8  and  C_23 
REMARK    6  A    between atoms: C_11  and  C_14 
REMARK    7  A    between atoms: C_15  and  C_18 
REMARK    8  A    between atoms: C_15  and  C_23 
REMARK    9  A    between atoms: C_21  and  C_26 
REMARK   10  A    between atoms: C_24  and  C_25 
REMARK   11  A    between atoms: C_29  and  C_32 
ROOT
HETATM    1  O   UNL     1      16.398   3.975  94.124  1.00  0.00     0.000 OA
HETATM    2  N   UNL     1      14.409   2.690  92.546  1.00  0.00     0.000 N 
HETATM    3  C   UNL     1      14.499   4.154  92.624  1.00  0.00     0.000 C 
HETATM    4  C   UNL     1      14.913   2.087  93.788  1.00  0.00     0.000 C 
HETATM    5  C   UNL     1      15.940   4.569  92.908  1.00  0.00     0.000 C 
HETATM    6  C   UNL     1      16.343   2.551  94.044  1.00  0.00     0.000 C 
ENDROOT
BRANCH   2   7
HETATM    7  C   UNL     1      13.033   2.269  92.285  1.00  0.00     0.000 C 
BRANCH   7   8
HETATM    8  C   UNL     1      12.073   3.408  92.328  1.00  0.00     0.000 A 
HETATM    9  C   UNL     1      11.740   3.993  93.550  1.00  0.00     0.000 A 
HETATM   10  C   UNL     1      10.840   5.058  93.592  1.00  0.00     0.000 A 
HETATM   11  C   UNL     1      10.275   5.538  92.411  1.00  0.00     0.000 A 
HETATM   12  C   UNL     1      10.607   4.955  91.190  1.00  0.00     0.000 A 
HETATM   13  C   UNL     1      11.506   3.890  91.148  1.00  0.00     0.000 A 
BRANCH  11  14
HETATM   14  C   UNL     1       9.353   6.632  92.453  1.00  0.00     0.000 C 
HETATM   15  C   UNL     1       8.579   7.551  92.488  1.00  0.00     0.000 C 
BRANCH  15  16
HETATM   16  C   UNL     1       7.657   8.643  92.530  1.00  0.00     0.000 A 
HETATM   17  C   UNL     1       6.514   8.621  91.730  1.00  0.00     0.000 A 
HETATM   18  C   UNL     1       5.614   9.686  91.774  1.00  0.00     0.000 A 
HETATM   19  C   UNL     1       5.876  10.747  92.615  1.00  0.00     0.000 A 
HETATM   20  C   UNL     1       6.998  10.792  93.415  1.00  0.00     0.000 A 
HETATM   21  C   UNL     1       7.900   9.728  93.373  1.00  0.00     0.000 A 
BRANCH  19  22
HETATM   22  C   UNL     1       4.917  11.881  92.660  1.00  0.00     0.000 C 
HETATM   23  O   UNL     1       4.525  12.293  93.749  1.00  0.00     0.000 OA
HETATM   24  N   UNL     1       4.551  12.416  91.432  1.00  0.00     0.000 N 
HETATM   25  HN  UNL     1       4.936  12.040  90.574  1.00  0.00     0.000 HD
BRANCH  24  26
HETATM   26  C   UNL     1       3.650  13.533  91.311  1.00  0.00     0.000 C 
BRANCH  26  27
HETATM   27  C   UNL     1       3.614  14.116  89.893  1.00  0.00     0.000 C 
HETATM   28  C   UNL     1       4.984  14.596  89.424  1.00  0.00     0.000 C 
BRANCH  27  29
HETATM   29  O   UNL     1       3.133  13.128  88.982  1.00  0.00     0.000 OA
HETATM   30  H   UNL     1       2.280  13.431  88.627  1.00  0.00     0.000 HD
ENDBRANCH  27  29
ENDBRANCH  26  27
BRANCH  26  31
HETATM   31  C   UNL     1       2.267  13.066  91.753  1.00  0.00     0.000 C 
HETATM   32  O   UNL     1       1.851  11.925  91.560  1.00  0.00     0.000 OA
BRANCH  31  33
HETATM   33  P   UNL     1       1.544  14.073  92.348  1.00  0.00     0.000 P 
HETATM   34  H   UNL     1       0.760  14.661  91.377  1.00  0.00     0.000 HD
BRANCH  33  35
HETATM   35  O   UNL     1       2.298  15.083  92.962  1.00  0.00     0.000 OA
HETATM   36  H   UNL     1       1.612  15.761  93.086  1.00  0.00     0.000 HD
ENDBRANCH  33  35
ENDBRANCH  31  33
ENDBRANCH  26  31
ENDBRANCH  24  26
ENDBRANCH  19  22
ENDBRANCH  15  16
ENDBRANCH  11  14
ENDBRANCH   7   8
ENDBRANCH   2   7
TORSDOF 11
ENDMDL
MODEL 3
REMARK VINA RESULT:      -6.3      1.499      2.242
REMARK  11 active torsions:
REMARK  status: ('A' for Active; 'I' for Inactive)
REMARK    1  A    between atoms: O_2  and  C_18 
REMARK    2  A    between atoms: O_5  and  P_8 
REMARK    3  A    between atoms: N_6  and  C_11 
REMARK    4  A    between atoms: N_7  and  C_15 
REMARK       I    between atoms: N_7  and  C_24 
REMARK    5  A    between atoms: P_8  and  C_23 
REMARK    6  A    between atoms: C_11  and  C_14 
REMARK    7  A    between atoms: C_15  and  C_18 
REMARK    8  A    between atoms: C_15  and  C_23 
REMARK    9  A    between atoms: C_21  and  C_26 
REMARK   10  A    between atoms: C_24  and  C_25 
REMARK   11  A    between atoms: C_29  and  C_32 
ROOT
HETATM    1  O   UNL     1      16.600   3.118  93.689  1.00  0.00     0.000 OA
HETATM    2  N   UNL     1      13.887   2.836  92.874  1.00  0.00     0.000 N 
HETATM    3  C   UNL     1      14.749   1.666  93.092  1.00  0.00     0.000 C 
HETATM    4  C   UNL     1      14.699   3.988  92.460  1.00  0.00     0.000 C 
HETATM    5  C   UNL     1      15.824   2.000  94.124  1.00  0.00     0.000 C 
HETATM    6  C   UNL     1      15.774   4.268  93.505  1.00  0.00     0.000 C 
ENDROOT
BRANCH   2   7
HETATM    7  C   UNL     1      12.856   2.541  91.881  1.00  0.00     0.000 C 
BRANCH   7   8
HETATM    8  C   UNL     1      11.791   3.583  91.841  1.00  0.00     0.000 A 
HETATM    9  C   UNL     1      11.213   3.943  90.623  1.00  0.00     0.000 A 
HETATM   10  C   UNL     1      10.218   4.919  90.585  1.00  0.00     0.000 A 
HETATM   11  C   UNL     1       9.800   5.534  91.765  1.00  0.00     0.000 A 
HETATM   12  C   UNL     1      10.376   5.175  92.982  1.00  0.00     0.000 A 
HETATM   13  C   UNL     1      11.372   4.200  93.020  1.00  0.00     0.000 A 
BRANCH  11  14
HETATM   14  C   UNL     1       8.778   6.534  91.726  1.00  0.00     0.000 C 
HETATM   15  C   UNL     1       7.918   7.374  91.693  1.00  0.00     0.000 C 
BRANCH  15  16
HETATM   16  C   UNL     1       6.896   8.374  91.655  1.00  0.00     0.000 A 
HETATM   17  C   UNL     1       5.676   8.099  91.038  1.00  0.00     0.000 A 
HETATM   18  C   UNL     1       4.678   9.073  91.003  1.00  0.00     0.000 A 
HETATM   19  C   UNL     1       4.923  10.299  91.586  1.00  0.00     0.000 A 
HETATM   20  C   UNL     1       6.121  10.595  92.202  1.00  0.00     0.000 A 
HETATM   21  C   UNL     1       7.119   9.622  92.237  1.00  0.00     0.000 A 
BRANCH  19  22
HETATM   22  C   UNL     1       3.861  11.337  91.547  1.00  0.00     0.000 C 
HETATM   23  O   UNL     1       2.702  11.001  91.314  1.00  0.00     0.000 OA
HETATM   24  N   UNL     1       4.271  12.637  91.809  1.00  0.00     0.000 N 
HETATM   25  HN  UNL     1       5.242  12.836  92.018  1.00  0.00     0.000 HD
BRANCH  24  26
HETATM   26  C   UNL     1       3.356  13.750  91.831  1.00  0.00     0.000 C 
BRANCH  26  27
HETATM   27  C   UNL     1       3.506  14.616  93.088  1.00  0.00     0.000 C 
HETATM   28  C   UNL     1       2.177  14.849  93.799  1.00  0.00     0.000 C 
BRANCH  27  29
HETATM   29  O   UNL     1       4.412  13.989  93.995  1.00  0.00     0.000 OA
HETATM   30  H   UNL     1       4.983  13.387  93.488  1.00  0.00     0.000 HD
ENDBRANCH  27  29
ENDBRANCH  26  27
BRANCH  26  31
HETATM   31  C   UNL     1       3.585  14.567  90.564  1.00  0.00     0.000 C 
HETATM   32  O   UNL     1       2.918  14.418  89.542  1.00  0.00     0.000 OA
BRANCH  31  33
HETATM   33  P   UNL     1       4.634  15.444  90.695  1.00  0.00     0.000 P 
HETATM   34  H   UNL     1       4.116  16.674  91.045  1.00  0.00     0.000 HD
BRANCH  33  35
HETATM   35  O   UNL     1       5.427  15.622  89.552  1.00  0.00     0.000 OA
HETATM   36  H   UNL     1       6.007  16.341  89.853  1.00  0.00     0.000 HD
ENDBRANCH  33  35
ENDBRANCH  31  33
ENDBRANCH  26  31
ENDBRANCH  24  26
ENDBRANCH  19  22
ENDBRANCH  15  16
ENDBRANCH  11  14
ENDBRANCH   7   8
ENDBRANCH   2   7
TORSDOF 11
ENDMDL
MODEL 4
REMARK VINA RESULT:      -6.1      1.332      1.643
REMARK  11 active torsions:
REMARK  status: ('A' for Active; 'I' for Inactive)
REMARK    1  A    between atoms: O_2  and  C_18 
REMARK    2  A    between atoms: O_5  and  P_8 
REMARK    3  A    between atoms: N_6  and  C_11 
REMARK    4  A    between atoms: N_7  and  C_15 
REMARK       I    between atoms: N_7  and  C_24 
REMARK    5  A    between atoms: P_8  and  C_23 
REMARK    6  A    between atoms: C_11  and  C_14 
REMARK    7  A    between atoms: C_15  and  C_18 
REMARK    8  A    between atoms: C_15  and  C_23 
REMARK    9  A    between atoms: C_21  and  C_26 
REMARK   10  A    between atoms: C_24  and  C_25 
REMARK   11  A    between atoms: C_29  and  C_32 
ROOT
HETATM    1  O   UNL     1      16.348   4.474  93.906  1.00  0.00     0.000 OA
HETATM    2  N   UNL     1      14.701   2.622  92.505  1.00  0.00     0.000 N 
HETATM    3  C   UNL     1      14.585   4.070  92.287  1.00  0.00     0.000 C 
HETATM    4  C   UNL     1      15.168   2.354  93.872  1.00  0.00     0.000 C 
HETATM    5  C   UNL     1      15.926   4.745  92.568  1.00  0.00     0.000 C 
HETATM    6  C   UNL     1      16.493   3.069  94.117  1.00  0.00     0.000 C 
ENDROOT
BRANCH   2   7
HETATM    7  C   UNL     1      13.425   1.956  92.252  1.00  0.00     0.000 C 
BRANCH   7   8
HETATM    8  C   UNL     1      12.290   2.919  92.159  1.00  0.00     0.000 A 
HETATM    9  C   UNL     1      11.654   3.130  90.935  1.00  0.00     0.000 A 
HETATM   10  C   UNL     1      10.594   4.032  90.847  1.00  0.00     0.000 A 
HETATM   11  C   UNL     1      10.170   4.722  91.983  1.00  0.00     0.000 A 
HETATM   12  C   UNL     1      10.805   4.512  93.205  1.00  0.00     0.000 A 
HETATM   13  C   UNL     1      11.865   3.610  93.294  1.00  0.00     0.000 A 
BRANCH  11  14
HETATM   14  C   UNL     1       9.082   5.646  91.893  1.00  0.00     0.000 C 
HETATM   15  C   UNL     1       8.167   6.423  91.816  1.00  0.00     0.000 C 
BRANCH  15  16
HETATM   16  C   UNL     1       7.079   7.346  91.725  1.00  0.00     0.000 A 
HETATM   17  C   UNL     1       7.123   8.546  92.436  1.00  0.00     0.000 A 
HETATM   18  C   UNL     1       6.062   9.447  92.344  1.00  0.00     0.000 A 
HETATM   19  C   UNL     1       4.984   9.130  91.545  1.00  0.00     0.000 A 
HETATM   20  C   UNL     1       4.917   7.950  90.834  1.00  0.00     0.000 A 
HETATM   21  C   UNL     1       5.977   7.048  90.924  1.00  0.00     0.000 A 
BRANCH  19  22
HETATM   22  C   UNL     1       3.854  10.090  91.450  1.00  0.00     0.000 C 
HETATM   23  O   UNL     1       2.765   9.784  91.930  1.00  0.00     0.000 OA
HETATM   24  N   UNL     1       4.134  11.299  90.830  1.00  0.00     0.000 N 
HETATM   25  HN  UNL     1       5.065  11.492  90.480  1.00  0.00     0.000 HD
BRANCH  24  26
HETATM   26  C   UNL     1       3.150  12.342  90.683  1.00  0.00     0.000 C 
BRANCH  26  27
HETATM   27  C   UNL     1       2.868  13.081  91.997  1.00  0.00     0.000 C 
HETATM   28  C   UNL     1       4.100  13.793  92.543  1.00  0.00     0.000 C 
BRANCH  27  29
HETATM   29  O   UNL     1       1.832  14.041  91.791  1.00  0.00     0.000 OA
HETATM   30  H   UNL     1       2.232  14.846  91.420  1.00  0.00     0.000 HD
ENDBRANCH  27  29
ENDBRANCH  26  27
BRANCH  26  31
HETATM   31  C   UNL     1       3.644  13.299  89.603  1.00  0.00     0.000 C 
HETATM   32  O   UNL     1       3.189  14.432  89.453  1.00  0.00     0.000 OA
BRANCH  31  33
HETATM   33  P   UNL     1       4.613  12.733  88.811  1.00  0.00     0.000 P 
HETATM   34  H   UNL     1       5.635  13.649  88.672  1.00  0.00     0.000 HD
BRANCH  33  35
HETATM   35  O   UNL     1       4.203  12.348  87.526  1.00  0.00     0.000 OA
HETATM   36  H   UNL     1       3.822  13.184  87.208  1.00  0.00     0.000 HD
ENDBRANCH  33  35
ENDBRANCH  31  33
ENDBRANCH  26  31
ENDBRANCH  24  26
ENDBRANCH  19  22
ENDBRANCH  15  16
ENDBRANCH  11  14
ENDBRANCH   7   8
ENDBRANCH   2   7
TORSDOF 11
ENDMDL
MODEL 5
REMARK VINA RESULT:      -5.7      3.608     12.219
REMARK  11 active torsions:
REMARK  status: ('A' for Active; 'I' for Inactive)
REMARK    1  A    between atoms: O_2  and  C_18 
REMARK    2  A    between atoms: O_5  and  P_8 
REMARK    3  A    between atoms: N_6  and  C_11 
REMARK    4  A    between atoms: N_7  and  C_15 
REMARK       I    between atoms: N_7  and  C_24 
REMARK    5  A    between atoms: P_8  and  C_23 
REMARK    6  A    between atoms: C_11  and  C_14 
REMARK    7  A    between atoms: C_15  and  C_18 
REMARK    8  A    between atoms: C_15  and  C_23 
REMARK    9  A    between atoms: C_21  and  C_26 
REMARK   10  A    between atoms: C_24  and  C_25 
REMARK   11  A    between atoms: C_29  and  C_32 
ROOT
HETATM    1  O   UNL     1       3.046  14.909  94.114  1.00  0.00     0.000 OA
HETATM    2  N   UNL     1       2.689  14.782  91.293  1.00  0.00     0.000 N 
HETATM    3  C   UNL     1       1.765  14.108  92.215  1.00  0.00     0.000 C 
HETATM    4  C   UNL     1       4.027  14.869  91.896  1.00  0.00     0.000 C 
HETATM    5  C   UNL     1       1.735  14.848  93.550  1.00  0.00     0.000 C 
HETATM    6  C   UNL     1       3.944  15.590  93.237  1.00  0.00     0.000 C 
ENDROOT
BRANCH   2   7
HETATM    7  C   UNL     1       2.742  14.083  90.010  1.00  0.00     0.000 C 
BRANCH   7   8
HETATM    8  C   UNL     1       3.743  12.978  90.006  1.00  0.00     0.000 A 
HETATM    9  C   UNL     1       4.925  13.112  89.276  1.00  0.00     0.000 A 
HETATM   10  C   UNL     1       5.861  12.078  89.270  1.00  0.00     0.000 A 
HETATM   11  C   UNL     1       5.615  10.912  89.994  1.00  0.00     0.000 A 
HETATM   12  C   UNL     1       4.435  10.777  90.723  1.00  0.00     0.000 A 
HETATM   13  C   UNL     1       3.499  11.811  90.729  1.00  0.00     0.000 A 
BRANCH  11  14
HETATM   14  C   UNL     1       6.577   9.852  89.990  1.00  0.00     0.000 C 
HETATM   15  C   UNL     1       7.384   8.961  89.986  1.00  0.00     0.000 C 
BRANCH  15  16
HETATM   16  C   UNL     1       8.344   7.902  89.981  1.00  0.00     0.000 A 
HETATM   17  C   UNL     1       8.492   7.090  91.106  1.00  0.00     0.000 A 
HETATM   18  C   UNL     1       9.426   6.055  91.099  1.00  0.00     0.000 A 
HETATM   19  C   UNL     1      10.191   5.854  89.969  1.00  0.00     0.000 A 
HETATM   20  C   UNL     1      10.064   6.642  88.845  1.00  0.00     0.000 A 
HETATM   21  C   UNL     1       9.129   7.678  88.850  1.00  0.00     0.000 A 
BRANCH  19  22
HETATM   22  C   UNL     1      11.188   4.752  89.964  1.00  0.00     0.000 C 
HETATM   23  O   UNL     1      11.300   4.050  88.962  1.00  0.00     0.000 OA
HETATM   24  N   UNL     1      11.951   4.617  91.115  1.00  0.00     0.000 N 
HETATM   25  HN  UNL     1      11.819   5.250  91.895  1.00  0.00     0.000 HD
BRANCH  24  26
HETATM   26  C   UNL     1      12.974   3.612  91.254  1.00  0.00     0.000 C 
BRANCH  26  27
HETATM   27  C   UNL     1      14.324   4.196  91.688  1.00  0.00     0.000 C 
HETATM   28  C   UNL     1      15.396   3.125  91.859  1.00  0.00     0.000 C 
BRANCH  27  29
HETATM   29  O   UNL     1      14.768   5.145  90.719  1.00  0.00     0.000 OA
HETATM   30  H   UNL     1      15.638   5.479  90.995  1.00  0.00     0.000 HD
ENDBRANCH  27  29
ENDBRANCH  26  27
BRANCH  26  31
HETATM   31  C   UNL     1      12.474   2.571  92.250  1.00  0.00     0.000 C 
HETATM   32  O   UNL     1      12.207   1.414  91.932  1.00  0.00     0.000 OA
BRANCH  31  33
HETATM   33  P   UNL     1      12.325   3.091  93.513  1.00  0.00     0.000 P 
HETATM   34  H   UNL     1      11.720   2.130  94.297  1.00  0.00     0.000 HD
BRANCH  33  35
HETATM   35  O   UNL     1      11.562   4.263  93.604  1.00  0.00     0.000 OA
HETATM   36  H   UNL     1      12.237   4.888  93.918  1.00  0.00     0.000 HD
ENDBRANCH  33  35
ENDBRANCH  31  33
ENDBRANCH  26  31
ENDBRANCH  24  26
ENDBRANCH  19  22
ENDBRANCH  15  16
ENDBRANCH  11  14
ENDBRANCH   7   8
ENDBRANCH   2   7
TORSDOF 11
ENDMDL
MODEL 6
REMARK VINA RESULT:      -5.5      1.488      2.233
REMARK  11 active torsions:
REMARK  status: ('A' for Active; 'I' for Inactive)
REMARK    1  A    between atoms: O_2  and  C_18 
REMARK    2  A    between atoms: O_5  and  P_8 
REMARK    3  A    between atoms: N_6  and  C_11 
REMARK    4  A    between atoms: N_7  and  C_15 
REMARK       I    between atoms: N_7  and  C_24 
REMARK    5  A    between atoms: P_8  and  C_23 
REMARK    6  A    between atoms: C_11  and  C_14 
REMARK    7  A    between atoms: C_15  and  C_18 
REMARK    8  A    between atoms: C_15  and  C_23 
REMARK    9  A    between atoms: C_21  and  C_26 
REMARK   10  A    between atoms: C_24  and  C_25 
REMARK   11  A    between atoms: C_29  and  C_32 
ROOT
HETATM    1  O   UNL     1      16.218   4.235  94.036  1.00  0.00     0.000 OA
HETATM    2  N   UNL     1      14.432   2.673  92.463  1.00  0.00     0.000 N 
HETATM    3  C   UNL     1      14.448   4.140  92.378  1.00  0.00     0.000 C 
HETATM    4  C   UNL     1      14.855   2.242  93.802  1.00  0.00     0.000 C 
HETATM    5  C   UNL     1      15.839   4.663  92.727  1.00  0.00     0.000 C 
HETATM    6  C   UNL     1      16.235   2.809  94.117  1.00  0.00     0.000 C 
ENDROOT
BRANCH   2   7
HETATM    7  C   UNL     1      13.105   2.150  92.143  1.00  0.00     0.000 C 
BRANCH   7   8
HETATM    8  C   UNL     1      12.090   3.232  91.991  1.00  0.00     0.000 A 
HETATM    9  C   UNL     1      11.594   3.885  93.120  1.00  0.00     0.000 A 
HETATM   10  C   UNL     1      10.643   4.895  92.980  1.00  0.00     0.000 A 
HETATM   11  C   UNL     1      10.190   5.253  91.710  1.00  0.00     0.000 A 
HETATM   12  C   UNL     1      10.684   4.602  90.582  1.00  0.00     0.000 A 
HETATM   13  C   UNL     1      11.635   3.591  90.722  1.00  0.00     0.000 A 
BRANCH  11  14
HETATM   14  C   UNL     1       9.215   6.291  91.566  1.00  0.00     0.000 C 
HETATM   15  C   UNL     1       8.396   7.162  91.445  1.00  0.00     0.000 C 
BRANCH  15  16
HETATM   16  C   UNL     1       7.422   8.199  91.302  1.00  0.00     0.000 A 
HETATM   17  C   UNL     1       6.958   8.880  92.428  1.00  0.00     0.000 A 
HETATM   18  C   UNL     1       6.010   9.893  92.288  1.00  0.00     0.000 A 
HETATM   19  C   UNL     1       5.548  10.203  91.026  1.00  0.00     0.000 A 
HETATM   20  C   UNL     1       5.990   9.545  89.898  1.00  0.00     0.000 A 
HETATM   21  C   UNL     1       6.938   8.532  90.037  1.00  0.00     0.000 A 
BRANCH  19  22
HETATM   22  C   UNL     1       4.536  11.282  90.877  1.00  0.00     0.000 C 
HETATM   23  O   UNL     1       3.421  11.002  90.444  1.00  0.00     0.000 OA
HETATM   24  N   UNL     1       4.937  12.550  91.274  1.00  0.00     0.000 N 
HETATM   25  HN  UNL     1       5.867  12.701  91.647  1.00  0.00     0.000 HD
BRANCH  24  26
HETATM   26  C   UNL     1       4.062  13.693  91.214  1.00  0.00     0.000 C 
BRANCH  26  27
HETATM   27  C   UNL     1       3.784  14.153  89.777  1.00  0.00     0.000 C 
HETATM   28  C   UNL     1       5.062  14.455  89.003  1.00  0.00     0.000 C 
BRANCH  27  29
HETATM   29  O   UNL     1       3.052  13.141  89.086  1.00  0.00     0.000 OA
HETATM   30  H   UNL     1       2.373  13.575  88.542  1.00  0.00     0.000 HD
ENDBRANCH  27  29
ENDBRANCH  26  27
BRANCH  26  31
HETATM   31  C   UNL     1       2.771  13.331  91.940  1.00  0.00     0.000 C 
HETATM   32  O   UNL     1       1.729  13.046  91.352  1.00  0.00     0.000 OA
BRANCH  31  33
HETATM   33  P   UNL     1       2.906  13.400  93.306  1.00  0.00     0.000 P 
HETATM   34  H   UNL     1       3.524  14.596  93.610  1.00  0.00     0.000 HD
BRANCH  33  35
HETATM   35  O   UNL     1       3.649  12.370  93.898  1.00  0.00     0.000 OA
HETATM   36  H   UNL     1       3.864  11.836  93.114  1.00  0.00     0.000 HD
ENDBRANCH  33  35
ENDBRANCH  31  33
ENDBRANCH  26  31
ENDBRANCH  24  26
ENDBRANCH  19  22
ENDBRANCH  15  16
ENDBRANCH  11  14
ENDBRANCH   7   8
ENDBRANCH   2   7
TORSDOF 11
ENDMDL
MODEL 7
REMARK VINA RESULT:      -4.9      3.636     12.327
REMARK  11 active torsions:
REMARK  status: ('A' for Active; 'I' for Inactive)
REMARK    1  A    between atoms: O_2  and  C_18 
REMARK    2  A    between atoms: O_5  and  P_8 
REMARK    3  A    between atoms: N_6  and  C_11 
REMARK    4  A    between atoms: N_7  and  C_15 
REMARK       I    between atoms: N_7  and  C_24 
REMARK    5  A    between atoms: P_8  and  C_23 
REMARK    6  A    between atoms: C_11  and  C_14 
REMARK    7  A    between atoms: C_15  and  C_18 
REMARK    8  A    between atoms: C_15  and  C_23 
REMARK    9  A    between atoms: C_21  and  C_26 
REMARK   10  A    between atoms: C_24  and  C_25 
REMARK   11  A    between atoms: C_29  and  C_32 
ROOT
HETATM    1  O   UNL     1       2.760  14.729  93.969  1.00  0.00     0.000 OA
HETATM    2  N   UNL     1       2.780  14.544  91.128  1.00  0.00     0.000 N 
HETATM    3  C   UNL     1       1.822  13.781  91.941  1.00  0.00     0.000 C 
HETATM    4  C   UNL     1       4.013  14.778  91.892  1.00  0.00     0.000 C 
HETATM    5  C   UNL     1       1.545  14.524  93.245  1.00  0.00     0.000 C 
HETATM    6  C   UNL     1       3.685  15.496  93.197  1.00  0.00     0.000 C 
ENDROOT
BRANCH   2   7
HETATM    7  C   UNL     1       3.069  13.845  89.877  1.00  0.00     0.000 C 
BRANCH   7   8
HETATM    8  C   UNL     1       4.068  12.753  90.054  1.00  0.00     0.000 A 
HETATM    9  C   UNL     1       3.886  11.797  91.054  1.00  0.00     0.000 A 
HETATM   10  C   UNL     1       4.821  10.776  91.222  1.00  0.00     0.000 A 
HETATM   11  C   UNL     1       5.937  10.710  90.388  1.00  0.00     0.000 A 
HETATM   12  C   UNL     1       6.120  11.664  89.389  1.00  0.00     0.000 A 
HETATM   13  C   UNL     1       5.185  12.685  89.221  1.00  0.00     0.000 A 
BRANCH  11  14
HETATM   14  C   UNL     1       6.895   9.661  90.559  1.00  0.00     0.000 C 
HETATM   15  C   UNL     1       7.700   8.780  90.703  1.00  0.00     0.000 C 
BRANCH  15  16
HETATM   16  C   UNL     1       8.657   7.731  90.874  1.00  0.00     0.000 A 
HETATM   17  C   UNL     1       9.146   7.047  89.760  1.00  0.00     0.000 A 
HETATM   18  C   UNL     1      10.082   6.026  89.927  1.00  0.00     0.000 A 
HETATM   19  C   UNL     1      10.507   5.713  91.201  1.00  0.00     0.000 A 
HETATM   20  C   UNL     1      10.038   6.373  92.317  1.00  0.00     0.000 A 
HETATM   21  C   UNL     1       9.102   7.395  92.152  1.00  0.00     0.000 A 
BRANCH  19  22
HETATM   22  C   UNL     1      11.502   4.624  91.377  1.00  0.00     0.000 C 
HETATM   23  O   UNL     1      11.708   3.844  90.451  1.00  0.00     0.000 OA
HETATM   24  N   UNL     1      12.155   4.589  92.602  1.00  0.00     0.000 N 
HETATM   25  HN  UNL     1      11.950   5.282  93.312  1.00  0.00     0.000 HD
BRANCH  24  26
HETATM   26  C   UNL     1      13.163   3.609  92.916  1.00  0.00     0.000 C 
BRANCH  26  27
HETATM   27  C   UNL     1      12.927   2.267  92.210  1.00  0.00     0.000 C 
HETATM   28  C   UNL     1      13.962   1.216  92.594  1.00  0.00     0.000 C 
BRANCH  27  29
HETATM   29  O   UNL     1      11.626   1.779  92.536  1.00  0.00     0.000 OA
HETATM   30  H   UNL     1      11.485   1.900  93.490  1.00  0.00     0.000 HD
ENDBRANCH  27  29
ENDBRANCH  26  27
BRANCH  26  31
HETATM   31  C   UNL     1      14.519   4.200  92.545  1.00  0.00     0.000 C 
HETATM   32  O   UNL     1      14.797   4.576  91.408  1.00  0.00     0.000 OA
BRANCH  31  33
HETATM   33  P   UNL     1      15.385   4.222  93.611  1.00  0.00     0.000 P 
HETATM   34  H   UNL     1      14.631   4.234  94.768  1.00  0.00     0.000 HD
BRANCH  33  35
HETATM   35  O   UNL     1      16.265   5.313  93.660  1.00  0.00     0.000 OA
HETATM   36  H   UNL     1      16.814   5.059  94.421  1.00  0.00     0.000 HD
ENDBRANCH  33  35
ENDBRANCH  31  33
ENDBRANCH  26  31
ENDBRANCH  24  26
ENDBRANCH  19  22
ENDBRANCH  15  16
ENDBRANCH  11  14
ENDBRANCH   7   8
ENDBRANCH   2   7
TORSDOF 11
ENDMDL
MODEL 8
REMARK VINA RESULT:      -4.6      3.493     12.441
REMARK  11 active torsions:
REMARK  status: ('A' for Active; 'I' for Inactive)
REMARK    1  A    between atoms: O_2  and  C_18 
REMARK    2  A    between atoms: O_5  and  P_8 
REMARK    3  A    between atoms: N_6  and  C_11 
REMARK    4  A    between atoms: N_7  and  C_15 
REMARK       I    between atoms: N_7  and  C_24 
REMARK    5  A    between atoms: P_8  and  C_23 
REMARK    6  A    between atoms: C_11  and  C_14 
REMARK    7  A    between atoms: C_15  and  C_18 
REMARK    8  A    between atoms: C_15  and  C_23 
REMARK    9  A    between atoms: C_21  and  C_26 
REMARK   10  A    between atoms: C_24  and  C_25 
REMARK   11  A    between atoms: C_29  and  C_32 
ROOT
HETATM    1  O   UNL     1       3.180  14.177  92.274  1.00  0.00     0.000 OA
HETATM    2  N   UNL     1       3.620  13.422  89.565  1.00  0.00     0.000 N 
HETATM    3  C   UNL     1       3.062  12.479  90.544  1.00  0.00     0.000 C 
HETATM    4  C   UNL     1       4.487  14.397  90.242  1.00  0.00     0.000 C 
HETATM    5  C   UNL     1       2.310  13.245  91.630  1.00  0.00     0.000 C 
HETATM    6  C   UNL     1       3.703  15.117  91.334  1.00  0.00     0.000 C 
ENDROOT
BRANCH   2   7
HETATM    7  C   UNL     1       4.354  12.710  88.521  1.00  0.00     0.000 C 
BRANCH   7   8
HETATM    8  C   UNL     1       5.266  11.670  89.076  1.00  0.00     0.000 A 
HETATM    9  C   UNL     1       4.757  10.425  89.448  1.00  0.00     0.000 A 
HETATM   10  C   UNL     1       5.608   9.451  89.970  1.00  0.00     0.000 A 
HETATM   11  C   UNL     1       6.968   9.722  90.118  1.00  0.00     0.000 A 
HETATM   12  C   UNL     1       7.477  10.964  89.747  1.00  0.00     0.000 A 
HETATM   13  C   UNL     1       6.626  11.939  89.226  1.00  0.00     0.000 A 
BRANCH  11  14
HETATM   14  C   UNL     1       7.841   8.722  90.651  1.00  0.00     0.000 C 
HETATM   15  C   UNL     1       8.575   7.881  91.099  1.00  0.00     0.000 C 
BRANCH  15  16
HETATM   16  C   UNL     1       9.448   6.881  91.631  1.00  0.00     0.000 A 
HETATM   17  C   UNL     1       9.790   6.904  92.983  1.00  0.00     0.000 A 
HETATM   18  C   UNL     1      10.640   5.927  93.502  1.00  0.00     0.000 A 
HETATM   19  C   UNL     1      11.126   4.950  92.659  1.00  0.00     0.000 A 
HETATM   20  C   UNL     1      10.802   4.906  91.320  1.00  0.00     0.000 A 
HETATM   21  C   UNL     1       9.953   5.882  90.799  1.00  0.00     0.000 A 
BRANCH  19  22
HETATM   22  C   UNL     1      12.033   3.911  93.213  1.00  0.00     0.000 C 
HETATM   23  O   UNL     1      11.552   2.871  93.656  1.00  0.00     0.000 OA
HETATM   24  N   UNL     1      13.390   4.197  93.161  1.00  0.00     0.000 N 
HETATM   25  HN  UNL     1      13.715   5.068  92.757  1.00  0.00     0.000 HD
BRANCH  24  26
HETATM   26  C   UNL     1      14.395   3.280  93.635  1.00  0.00     0.000 C 
BRANCH  26  27
HETATM   27  C   UNL     1      14.530   2.037  92.747  1.00  0.00     0.000 C 
HETATM   28  C   UNL     1      14.525   0.742  93.551  1.00  0.00     0.000 C 
BRANCH  27  29
HETATM   29  O   UNL     1      13.458   2.003  91.806  1.00  0.00     0.000 OA
HETATM   30  H   UNL     1      12.763   2.610  92.113  1.00  0.00     0.000 HD
ENDBRANCH  27  29
ENDBRANCH  26  27
BRANCH  26  31
HETATM   31  C   UNL     1      15.713   4.042  93.729  1.00  0.00     0.000 C 
HETATM   32  O   UNL     1      15.820   5.233  93.445  1.00  0.00     0.000 OA
BRANCH  31  33
HETATM   33  P   UNL     1      16.752   3.234  94.123  1.00  0.00     0.000 P 
HETATM   34  H   UNL     1      17.057   3.546  95.433  1.00  0.00     0.000 HD
BRANCH  33  35
HETATM   35  O   UNL     1      17.929   3.342  93.370  1.00  0.00     0.000 OA
HETATM   36  H   UNL     1      18.099   4.297  93.449  1.00  0.00     0.000 HD
ENDBRANCH  33  35
ENDBRANCH  31  33
ENDBRANCH  26  31
ENDBRANCH  24  26
ENDBRANCH  19  22
ENDBRANCH  15  16
ENDBRANCH  11  14
ENDBRANCH   7   8
ENDBRANCH   2   7
TORSDOF 11
ENDMDL
MODEL 9
REMARK VINA RESULT:      -4.1      1.928      2.464
REMARK  11 active torsions:
REMARK  status: ('A' for Active; 'I' for Inactive)
REMARK    1  A    between atoms: O_2  and  C_18 
REMARK    2  A    between atoms: O_5  and  P_8 
REMARK    3  A    between atoms: N_6  and  C_11 
REMARK    4  A    between atoms: N_7  and  C_15 
REMARK       I    between atoms: N_7  and  C_24 
REMARK    5  A    between atoms: P_8  and  C_23 
REMARK    6  A    between atoms: C_11  and  C_14 
REMARK    7  A    between atoms: C_15  and  C_18 
REMARK    8  A    between atoms: C_15  and  C_23 
REMARK    9  A    between atoms: C_21  and  C_26 
REMARK   10  A    between atoms: C_24  and  C_25 
REMARK   11  A    between atoms: C_29  and  C_32 
ROOT
HETATM    1  O   UNL     1      15.439   3.994  91.434  1.00  0.00     0.000 OA
HETATM    2  N   UNL     1      13.268   2.602  92.637  1.00  0.00     0.000 N 
HETATM    3  C   UNL     1      13.045   3.647  91.628  1.00  0.00     0.000 C 
HETATM    4  C   UNL     1      14.512   2.868  93.372  1.00  0.00     0.000 C 
HETATM    5  C   UNL     1      14.248   3.726  90.692  1.00  0.00     0.000 C 
HETATM    6  C   UNL     1      15.680   2.966  92.395  1.00  0.00     0.000 C 
ENDROOT
BRANCH   2   7
HETATM    7  C   UNL     1      12.132   2.515  93.552  1.00  0.00     0.000 C 
BRANCH   7   8
HETATM    8  C   UNL     1      11.137   3.602  93.327  1.00  0.00     0.000 A 
HETATM    9  C   UNL     1      10.182   3.475  92.317  1.00  0.00     0.000 A 
HETATM   10  C   UNL     1       9.252   4.492  92.104  1.00  0.00     0.000 A 
HETATM   11  C   UNL     1       9.276   5.635  92.902  1.00  0.00     0.000 A 
HETATM   12  C   UNL     1      10.229   5.764  93.911  1.00  0.00     0.000 A 
HETATM   13  C   UNL     1      11.159   4.747  94.124  1.00  0.00     0.000 A 
BRANCH  11  14
HETATM   14  C   UNL     1       8.321   6.678  92.685  1.00  0.00     0.000 C 
HETATM   15  C   UNL     1       7.518   7.554  92.502  1.00  0.00     0.000 C 
BRANCH  15  16
HETATM   16  C   UNL     1       6.562   8.595  92.285  1.00  0.00     0.000 A 
HETATM   17  C   UNL     1       5.253   8.446  92.744  1.00  0.00     0.000 A 
HETATM   18  C   UNL     1       4.322   9.463  92.535  1.00  0.00     0.000 A 
HETATM   19  C   UNL     1       4.720  10.605  91.872  1.00  0.00     0.000 A 
HETATM   20  C   UNL     1       6.007  10.776  91.407  1.00  0.00     0.000 A 
HETATM   21  C   UNL     1       6.940   9.760  91.616  1.00  0.00     0.000 A 
BRANCH  19  22
HETATM   22  C   UNL     1       3.727  11.688  91.647  1.00  0.00     0.000 C 
HETATM   23  O   UNL     1       2.667  11.422  91.086  1.00  0.00     0.000 OA
HETATM   24  N   UNL     1       4.078  12.943  92.124  1.00  0.00     0.000 N 
HETATM   25  HN  UNL     1       4.961  13.082  92.600  1.00  0.00     0.000 HD
BRANCH  24  26
HETATM   26  C   UNL     1       3.211  14.088  92.004  1.00  0.00     0.000 C 
BRANCH  26  27
HETATM   27  C   UNL     1       3.472  15.145  93.085  1.00  0.00     0.000 C 
HETATM   28  C   UNL     1       2.214  15.498  93.871  1.00  0.00     0.000 C 
BRANCH  27  29
HETATM   29  O   UNL     1       4.466  14.667  93.990  1.00  0.00     0.000 OA
HETATM   30  H   UNL     1       4.020  14.178  94.702  1.00  0.00     0.000 HD
ENDBRANCH  27  29
ENDBRANCH  26  27
BRANCH  26  31
HETATM   31  C   UNL     1       3.396  14.668  90.605  1.00  0.00     0.000 C 
HETATM   32  O   UNL     1       2.615  14.450  89.682  1.00  0.00     0.000 OA
BRANCH  31  33
HETATM   33  P   UNL     1       4.544  15.416  90.501  1.00  0.00     0.000 P 
HETATM   34  H   UNL     1       4.186  16.748  90.545  1.00  0.00     0.000 HD
BRANCH  33  35
HETATM   35  O   UNL     1       5.301  15.213  89.339  1.00  0.00     0.000 OA
HETATM   36  H   UNL     1       5.079  14.286  89.146  1.00  0.00     0.000 HD
ENDBRANCH  33  35
ENDBRANCH  31  33
ENDBRANCH  26  31
ENDBRANCH  24  26
ENDBRANCH  19  22
ENDBRANCH  15  16
ENDBRANCH  11  14
ENDBRANCH   7   8
ENDBRANCH   2   7
TORSDOF 11
ENDMDL
