MODEL 1
REMARK VINA RESULT:      -7.1      0.000      0.000
REMARK  9 active torsions:
REMARK  status: ('A' for Active; 'I' for Inactive)
REMARK    1  A    between atoms: O_2  and  C_17 
REMARK    2  A    between atoms: N_5  and  C_10 
REMARK    3  A    between atoms: N_6  and  C_14 
REMARK       I    between atoms: N_6  and  C_23 
REMARK       I    between atoms: N_7  and  C_22 
REMARK    4  A    between atoms: C_10  and  C_13 
REMARK    5  A    between atoms: C_14  and  C_17 
REMARK    6  A    between atoms: C_14  and  C_22 
REMARK    7  A    between atoms: C_20  and  C_25 
REMARK    8  A    between atoms: C_23  and  C_24 
REMARK    9  A    between atoms: C_28  and  C_31 
ROOT
HETATM    1  O   UNL     1      16.133   3.587  94.124  1.00  0.00    -0.388 OA
HETATM    2  N   UNL     1      14.082   2.704  92.359  1.00  0.00     0.096 N 
HETATM    3  C   UNL     1      14.100   4.074  92.891  1.00  0.00     0.299 C 
HETATM    4  C   UNL     1      14.727   1.787  93.309  1.00  0.00     0.299 C 
HETATM    5  C   UNL     1      15.537   4.492  93.193  1.00  0.00     0.198 C 
HETATM    6  C   UNL     1      16.147   2.258  93.601  1.00  0.00     0.198 C 
ENDROOT
BRANCH   2   7
HETATM    7  C   UNL     1      12.713   2.279  92.073  1.00  0.00     0.311 C 
BRANCH   7   8
HETATM    8  C   UNL     1      11.818   3.426  91.746  1.00  0.00    -0.030 A 
HETATM    9  C   UNL     1      11.707   3.868  90.427  1.00  0.00     0.010 A 
HETATM   10  C   UNL     1      10.872   4.943  90.121  1.00  0.00     0.021 A 
HETATM   11  C   UNL     1      10.147   5.572  91.133  1.00  0.00     0.018 A 
HETATM   12  C   UNL     1      10.257   5.130  92.449  1.00  0.00     0.021 A 
HETATM   13  C   UNL     1      11.093   4.057  92.757  1.00  0.00     0.010 A 
BRANCH  11  14
HETATM   14  C   UNL     1       9.289   6.672  90.818  1.00  0.00    -0.061 C 
HETATM   15  C   UNL     1       8.567   7.597  90.554  1.00  0.00    -0.061 C 
BRANCH  15  16
HETATM   16  C   UNL     1       7.710   8.698  90.239  1.00  0.00     0.018 A 
HETATM   17  C   UNL     1       8.238   9.985  90.140  1.00  0.00     0.022 A 
HETATM   18  C   UNL     1       7.402  11.058  89.831  1.00  0.00     0.018 A 
HETATM   19  C   UNL     1       6.059  10.820  89.627  1.00  0.00     0.032 A 
HETATM   20  C   UNL     1       5.513   9.557  89.720  1.00  0.00     0.018 A 
HETATM   21  C   UNL     1       6.348   8.483  90.029  1.00  0.00     0.022 A 
BRANCH  19  22
HETATM   22  C   UNL     1       5.169  11.964  89.300  1.00  0.00     0.252 C 
HETATM   23  O   UNL     1       4.898  12.196  88.124  1.00  0.00    -0.268 OA
HETATM   24  N   UNL     1       4.681  12.684  90.381  1.00  0.00    -0.342 N 
HETATM   25  H   UNL     1       4.928  12.418  91.328  1.00  0.00     0.163 HD
BRANCH  24  26
HETATM   26  C   UNL     1       3.788  13.804  90.228  1.00  0.00     0.199 C 
BRANCH  26  27
HETATM   27  C   UNL     1       2.672  13.822  91.280  1.00  0.00     0.145 C 
HETATM   28  C   UNL     1       2.195  12.421  91.649  1.00  0.00     0.042 C 
BRANCH  27  29
HETATM   29  O   UNL     1       3.137  14.478  92.459  1.00  0.00    -0.393 OA
HETATM   30  H   UNL     1       2.368  14.846  92.926  1.00  0.00     0.210 HD
ENDBRANCH  27  29
ENDBRANCH  26  27
BRANCH  26  31
HETATM   31  C   UNL     1       4.625  15.078  90.287  1.00  0.00     0.220 C 
HETATM   32  O   UNL     1       4.941  15.624  91.342  1.00  0.00    -0.278 OA
HETATM   33  N   UNL     1       4.940  15.550  89.035  1.00  0.00    -0.271 NA
HETATM   34  H   UNL     1       4.622  15.177  88.148  1.00  0.00     0.127 HD
HETATM   35  H   UNL     1       4.436  16.684  88.379  1.00  0.00     0.127 HD
ENDBRANCH  26  31
ENDBRANCH  24  26
ENDBRANCH  19  22
ENDBRANCH  15  16
ENDBRANCH  11  14
ENDBRANCH   7   8
ENDBRANCH   2   7
TORSDOF 9
ENDMDL
MODEL 2
REMARK VINA RESULT:      -7.0      1.025      1.690
REMARK  9 active torsions:
REMARK  status: ('A' for Active; 'I' for Inactive)
REMARK    1  A    between atoms: O_2  and  C_17 
REMARK    2  A    between atoms: N_5  and  C_10 
REMARK    3  A    between atoms: N_6  and  C_14 
REMARK       I    between atoms: N_6  and  C_23 
REMARK       I    between atoms: N_7  and  C_22 
REMARK    4  A    between atoms: C_10  and  C_13 
REMARK    5  A    between atoms: C_14  and  C_17 
REMARK    6  A    between atoms: C_14  and  C_22 
REMARK    7  A    between atoms: C_20  and  C_25 
REMARK    8  A    between atoms: C_23  and  C_24 
REMARK    9  A    between atoms: C_28  and  C_31 
ROOT
HETATM    1  O   UNL     1      16.881   3.830  93.780  1.00  0.00    -0.388 OA
HETATM    2  N   UNL     1      14.264   2.900  93.160  1.00  0.00     0.096 N 
HETATM    3  C   UNL     1      15.423   1.997  93.145  1.00  0.00     0.299 C 
HETATM    4  C   UNL     1      14.689   4.270  92.840  1.00  0.00     0.299 C 
HETATM    5  C   UNL     1      16.483   2.501  94.121  1.00  0.00     0.198 C 
HETATM    6  C   UNL     1      15.765   4.720  93.822  1.00  0.00     0.198 C 
ENDROOT
BRANCH   2   7
HETATM    7  C   UNL     1      13.239   2.442  92.223  1.00  0.00     0.311 C 
BRANCH   7   8
HETATM    8  C   UNL     1      12.231   3.498  91.923  1.00  0.00    -0.030 A 
HETATM    9  C   UNL     1      11.567   4.143  92.967  1.00  0.00     0.010 A 
HETATM   10  C   UNL     1      10.621   5.130  92.688  1.00  0.00     0.021 A 
HETATM   11  C   UNL     1      10.342   5.472  91.365  1.00  0.00     0.018 A 
HETATM   12  C   UNL     1      11.004   4.828  90.322  1.00  0.00     0.021 A 
HETATM   13  C   UNL     1      11.949   3.841  90.601  1.00  0.00     0.010 A 
BRANCH  11  14
HETATM   14  C   UNL     1       9.373   6.485  91.079  1.00  0.00    -0.061 C 
HETATM   15  C   UNL     1       8.560   7.337  90.838  1.00  0.00    -0.061 C 
BRANCH  15  16
HETATM   16  C   UNL     1       7.591   8.349  90.552  1.00  0.00     0.018 A 
HETATM   17  C   UNL     1       6.957   8.375  89.309  1.00  0.00     0.022 A 
HETATM   18  C   UNL     1       6.011   9.361  89.031  1.00  0.00     0.018 A 
HETATM   19  C   UNL     1       5.719  10.297  90.001  1.00  0.00     0.032 A 
HETATM   20  C   UNL     1       6.332  10.293  91.236  1.00  0.00     0.018 A 
HETATM   21  C   UNL     1       7.279   9.308  91.515  1.00  0.00     0.022 A 
BRANCH  19  22
HETATM   22  C   UNL     1       4.712  11.349  89.703  1.00  0.00     0.252 C 
HETATM   23  O   UNL     1       3.963  11.207  88.739  1.00  0.00    -0.268 OA
HETATM   24  N   UNL     1       4.681  12.426  90.578  1.00  0.00    -0.342 N 
HETATM   25  H   UNL     1       5.314  12.463  91.368  1.00  0.00     0.163 HD
BRANCH  24  26
HETATM   26  C   UNL     1       3.745  13.513  90.437  1.00  0.00     0.199 C 
BRANCH  26  27
HETATM   27  C   UNL     1       3.166  13.975  91.780  1.00  0.00     0.145 C 
HETATM   28  C   UNL     1       1.696  13.601  91.941  1.00  0.00     0.042 C 
BRANCH  27  29
HETATM   29  O   UNL     1       3.912  13.392  92.848  1.00  0.00    -0.393 OA
HETATM   30  H   UNL     1       3.865  12.425  92.760  1.00  0.00     0.210 HD
ENDBRANCH  27  29
ENDBRANCH  26  27
BRANCH  26  31
HETATM   31  C   UNL     1       4.461  14.653  89.720  1.00  0.00     0.220 C 
HETATM   32  O   UNL     1       4.605  14.691  88.500  1.00  0.00    -0.278 OA
HETATM   33  N   UNL     1       4.947  15.593  90.596  1.00  0.00    -0.271 NA
HETATM   34  H   UNL     1       4.924  15.549  91.608  1.00  0.00     0.127 HD
HETATM   35  H   UNL     1       6.281  15.844  90.953  1.00  0.00     0.127 HD
ENDBRANCH  26  31
ENDBRANCH  24  26
ENDBRANCH  19  22
ENDBRANCH  15  16
ENDBRANCH  11  14
ENDBRANCH   7   8
ENDBRANCH   2   7
TORSDOF 9
ENDMDL
MODEL 3
REMARK VINA RESULT:      -6.9      2.002      2.790
REMARK  9 active torsions:
REMARK  status: ('A' for Active; 'I' for Inactive)
REMARK    1  A    between atoms: O_2  and  C_17 
REMARK    2  A    between atoms: N_5  and  C_10 
REMARK    3  A    between atoms: N_6  and  C_14 
REMARK       I    between atoms: N_6  and  C_23 
REMARK       I    between atoms: N_7  and  C_22 
REMARK    4  A    between atoms: C_10  and  C_13 
REMARK    5  A    between atoms: C_14  and  C_17 
REMARK    6  A    between atoms: C_14  and  C_22 
REMARK    7  A    between atoms: C_20  and  C_25 
REMARK    8  A    between atoms: C_23  and  C_24 
REMARK    9  A    between atoms: C_28  and  C_31 
ROOT
HETATM    1  O   UNL     1      16.568   2.811  93.787  1.00  0.00    -0.388 OA
HETATM    2  N   UNL     1      13.808   2.825  93.087  1.00  0.00     0.096 N 
HETATM    3  C   UNL     1      14.586   1.579  93.117  1.00  0.00     0.299 C 
HETATM    4  C   UNL     1      14.687   3.960  92.773  1.00  0.00     0.299 C 
HETATM    5  C   UNL     1      15.727   1.706  94.124  1.00  0.00     0.198 C 
HETATM    6  C   UNL     1      15.825   4.031  93.786  1.00  0.00     0.198 C 
ENDROOT
BRANCH   2   7
HETATM    7  C   UNL     1      12.716   2.731  92.121  1.00  0.00     0.311 C 
BRANCH   7   8
HETATM    8  C   UNL     1      11.774   3.883  92.214  1.00  0.00    -0.030 A 
HETATM    9  C   UNL     1      11.324   4.510  91.051  1.00  0.00     0.010 A 
HETATM   10  C   UNL     1      10.445   5.589  91.136  1.00  0.00     0.021 A 
HETATM   11  C   UNL     1      10.014   6.039  92.384  1.00  0.00     0.018 A 
HETATM   12  C   UNL     1      10.463   5.414  93.545  1.00  0.00     0.021 A 
HETATM   13  C   UNL     1      11.343   4.335  93.461  1.00  0.00     0.010 A 
BRANCH  11  14
HETATM   14  C   UNL     1       9.111   7.145  92.471  1.00  0.00    -0.061 C 
HETATM   15  C   UNL     1       8.351   8.074  92.544  1.00  0.00    -0.061 C 
BRANCH  15  16
HETATM   16  C   UNL     1       7.447   9.178  92.632  1.00  0.00     0.018 A 
HETATM   17  C   UNL     1       7.188   9.769  93.869  1.00  0.00     0.022 A 
HETATM   18  C   UNL     1       6.308  10.849  93.954  1.00  0.00     0.018 A 
HETATM   19  C   UNL     1       5.709  11.312  92.802  1.00  0.00     0.032 A 
HETATM   20  C   UNL     1       5.948  10.745  91.568  1.00  0.00     0.018 A 
HETATM   21  C   UNL     1       6.827   9.666  91.481  1.00  0.00     0.022 A 
BRANCH  19  22
HETATM   22  C   UNL     1       4.770  12.461  92.893  1.00  0.00     0.252 C 
HETATM   23  O   UNL     1       4.388  12.837  93.999  1.00  0.00    -0.268 OA
HETATM   24  N   UNL     1       4.409  13.048  91.688  1.00  0.00    -0.342 N 
HETATM   25  H   UNL     1       4.785  12.699  90.815  1.00  0.00     0.163 HD
BRANCH  24  26
HETATM   26  C   UNL     1       3.527  14.185  91.614  1.00  0.00     0.199 C 
BRANCH  26  27
HETATM   27  C   UNL     1       3.565  14.877  90.245  1.00  0.00     0.145 C 
HETATM   28  C   UNL     1       4.890  15.588  89.987  1.00  0.00     0.042 C 
BRANCH  27  29
HETATM   29  O   UNL     1       3.349  13.912  89.216  1.00  0.00    -0.393 OA
HETATM   30  H   UNL     1       4.039  14.026  88.542  1.00  0.00     0.210 HD
ENDBRANCH  27  29
ENDBRANCH  26  27
BRANCH  26  31
HETATM   31  C   UNL     1       2.120  13.706  91.954  1.00  0.00     0.220 C 
HETATM   32  O   UNL     1       1.672  12.623  91.579  1.00  0.00    -0.278 OA
HETATM   33  N   UNL     1       1.417  14.635  92.682  1.00  0.00    -0.271 NA
HETATM   34  H   UNL     1       1.722  15.569  92.929  1.00  0.00     0.127 HD
HETATM   35  H   UNL     1       0.343  15.437  92.265  1.00  0.00     0.127 HD
ENDBRANCH  26  31
ENDBRANCH  24  26
ENDBRANCH  19  22
ENDBRANCH  15  16
ENDBRANCH  11  14
ENDBRANCH   7   8
ENDBRANCH   2   7
TORSDOF 9
ENDMDL
MODEL 4
REMARK VINA RESULT:      -5.6      2.196     12.270
REMARK  9 active torsions:
REMARK  status: ('A' for Active; 'I' for Inactive)
REMARK    1  A    between atoms: O_2  and  C_17 
REMARK    2  A    between atoms: N_5  and  C_10 
REMARK    3  A    between atoms: N_6  and  C_14 
REMARK       I    between atoms: N_6  and  C_23 
REMARK       I    between atoms: N_7  and  C_22 
REMARK    4  A    between atoms: C_10  and  C_13 
REMARK    5  A    between atoms: C_14  and  C_17 
REMARK    6  A    between atoms: C_14  and  C_22 
REMARK    7  A    between atoms: C_20  and  C_25 
REMARK    8  A    between atoms: C_23  and  C_24 
REMARK    9  A    between atoms: C_28  and  C_31 
ROOT
HETATM    1  O   UNL     1       2.646  14.220  94.079  1.00  0.00    -0.388 OA
HETATM    2  N   UNL     1       2.284  14.221  91.256  1.00  0.00     0.096 N 
HETATM    3  C   UNL     1       1.663  13.200  92.110  1.00  0.00     0.299 C 
HETATM    4  C   UNL     1       3.529  14.702  91.872  1.00  0.00     0.299 C 
HETATM    5  C   UNL     1       1.418  13.770  93.505  1.00  0.00     0.198 C 
HETATM    6  C   UNL     1       3.242  15.236  93.271  1.00  0.00     0.198 C 
ENDROOT
BRANCH   2   7
HETATM    7  C   UNL     1       2.537  13.693  89.917  1.00  0.00     0.311 C 
BRANCH   7   8
HETATM    8  C   UNL     1       3.575  12.622  89.915  1.00  0.00    -0.030 A 
HETATM    9  C   UNL     1       4.928  12.963  89.917  1.00  0.00     0.010 A 
HETATM   10  C   UNL     1       5.899  11.962  89.914  1.00  0.00     0.021 A 
HETATM   11  C   UNL     1       5.517  10.621  89.910  1.00  0.00     0.018 A 
HETATM   12  C   UNL     1       4.166  10.280  89.908  1.00  0.00     0.021 A 
HETATM   13  C   UNL     1       3.194  11.280  89.911  1.00  0.00     0.010 A 
BRANCH  11  14
HETATM   14  C   UNL     1       6.513   9.595  89.908  1.00  0.00    -0.061 C 
HETATM   15  C   UNL     1       7.351   8.732  89.907  1.00  0.00    -0.061 C 
BRANCH  15  16
HETATM   16  C   UNL     1       8.347   7.706  89.907  1.00  0.00     0.018 A 
HETATM   17  C   UNL     1       8.644   7.025  88.726  1.00  0.00     0.022 A 
HETATM   18  C   UNL     1       9.617   6.026  88.725  1.00  0.00     0.018 A 
HETATM   19  C   UNL     1      10.272   5.731  89.903  1.00  0.00     0.032 A 
HETATM   20  C   UNL     1       9.996   6.390  91.083  1.00  0.00     0.018 A 
HETATM   21  C   UNL     1       9.023   7.389  91.085  1.00  0.00     0.022 A 
BRANCH  19  22
HETATM   22  C   UNL     1      11.307   4.666  89.902  1.00  0.00     0.252 C 
HETATM   23  O   UNL     1      11.616   4.131  88.840  1.00  0.00    -0.268 OA
HETATM   24  N   UNL     1      11.876   4.369  91.133  1.00  0.00    -0.342 N 
HETATM   25  H   UNL     1      11.588   4.871  91.965  1.00  0.00     0.163 HD
BRANCH  24  26
HETATM   26  C   UNL     1      12.910   3.378  91.291  1.00  0.00     0.199 C 
BRANCH  26  27
HETATM   27  C   UNL     1      14.126   3.906  92.062  1.00  0.00     0.145 C 
HETATM   28  C   UNL     1      13.862   4.024  93.559  1.00  0.00     0.042 C 
BRANCH  27  29
HETATM   29  O   UNL     1      15.237   3.035  91.854  1.00  0.00    -0.393 OA
HETATM   30  H   UNL     1      15.475   2.635  92.708  1.00  0.00     0.210 HD
ENDBRANCH  27  29
ENDBRANCH  26  27
BRANCH  26  31
HETATM   31  C   UNL     1      12.293   2.170  91.988  1.00  0.00     0.220 C 
HETATM   32  O   UNL     1      12.914   1.129  92.198  1.00  0.00    -0.278 OA
HETATM   33  N   UNL     1      10.973   2.373  92.310  1.00  0.00    -0.271 NA
HETATM   34  H   UNL     1      10.409   3.181  92.073  1.00  0.00     0.127 HD
HETATM   35  H   UNL     1       9.834   1.800  91.722  1.00  0.00     0.127 HD
ENDBRANCH  26  31
ENDBRANCH  24  26
ENDBRANCH  19  22
ENDBRANCH  15  16
ENDBRANCH  11  14
ENDBRANCH   7   8
ENDBRANCH   2   7
TORSDOF 9
ENDMDL
MODEL 5
REMARK VINA RESULT:      -5.5      2.141     12.609
REMARK  9 active torsions:
REMARK  status: ('A' for Active; 'I' for Inactive)
REMARK    1  A    between atoms: O_2  and  C_17 
REMARK    2  A    between atoms: N_5  and  C_10 
REMARK    3  A    between atoms: N_6  and  C_14 
REMARK       I    between atoms: N_6  and  C_23 
REMARK       I    between atoms: N_7  and  C_22 
REMARK    4  A    between atoms: C_10  and  C_13 
REMARK    5  A    between atoms: C_14  and  C_17 
REMARK    6  A    between atoms: C_14  and  C_22 
REMARK    7  A    between atoms: C_20  and  C_25 
REMARK    8  A    between atoms: C_23  and  C_24 
REMARK    9  A    between atoms: C_28  and  C_31 
ROOT
HETATM    1  O   UNL     1       2.581  15.617  93.366  1.00  0.00    -0.388 OA
HETATM    2  N   UNL     1       2.941  13.065  92.158  1.00  0.00     0.096 N 
HETATM    3  C   UNL     1       4.054  14.014  92.294  1.00  0.00     0.299 C 
HETATM    4  C   UNL     1       1.669  13.793  92.052  1.00  0.00     0.299 C 
HETATM    5  C   UNL     1       3.819  14.917  93.502  1.00  0.00     0.198 C 
HETATM    6  C   UNL     1       1.490  14.702  93.264  1.00  0.00     0.198 C 
ENDROOT
BRANCH   2   7
HETATM    7  C   UNL     1       3.140  12.195  91.000  1.00  0.00     0.311 C 
BRANCH   7   8
HETATM    8  C   UNL     1       4.201  11.175  91.232  1.00  0.00    -0.030 A 
HETATM    9  C   UNL     1       4.097  10.293  92.309  1.00  0.00     0.010 A 
HETATM   10  C   UNL     1       5.090   9.339  92.529  1.00  0.00     0.021 A 
HETATM   11  C   UNL     1       6.187   9.266  91.670  1.00  0.00     0.018 A 
HETATM   12  C   UNL     1       6.292  10.145  90.594  1.00  0.00     0.021 A 
HETATM   13  C   UNL     1       5.299  11.100  90.375  1.00  0.00     0.010 A 
BRANCH  11  14
HETATM   14  C   UNL     1       7.205   8.286  91.894  1.00  0.00    -0.061 C 
HETATM   15  C   UNL     1       8.060   7.463  92.082  1.00  0.00    -0.061 C 
BRANCH  15  16
HETATM   16  C   UNL     1       9.078   6.483  92.307  1.00  0.00     0.018 A 
HETATM   17  C   UNL     1       9.366   5.540  91.321  1.00  0.00     0.022 A 
HETATM   18  C   UNL     1      10.360   4.586  91.539  1.00  0.00     0.018 A 
HETATM   19  C   UNL     1      11.044   4.598  92.737  1.00  0.00     0.032 A 
HETATM   20  C   UNL     1      10.777   5.520  93.728  1.00  0.00     0.018 A 
HETATM   21  C   UNL     1       9.783   6.474  93.511  1.00  0.00     0.022 A 
BRANCH  19  22
HETATM   22  C   UNL     1      12.102   3.581  92.970  1.00  0.00     0.252 C 
HETATM   23  O   UNL     1      11.782   2.401  93.095  1.00  0.00    -0.268 OA
HETATM   24  N   UNL     1      13.405   4.056  93.004  1.00  0.00    -0.342 N 
HETATM   25  H   UNL     1      13.595   5.042  92.868  1.00  0.00     0.163 HD
BRANCH  24  26
HETATM   26  C   UNL     1      14.541   3.191  93.197  1.00  0.00     0.199 C 
BRANCH  26  27
HETATM   27  C   UNL     1      14.963   2.470  91.910  1.00  0.00     0.145 C 
HETATM   28  C   UNL     1      14.721   3.312  90.663  1.00  0.00     0.042 C 
BRANCH  27  29
HETATM   29  O   UNL     1      16.349   2.136  91.983  1.00  0.00    -0.393 OA
HETATM   30  H   UNL     1      16.551   1.518  91.260  1.00  0.00     0.210 HD
ENDBRANCH  27  29
ENDBRANCH  26  27
BRANCH  26  31
HETATM   31  C   UNL     1      15.680   4.036  93.758  1.00  0.00     0.220 C 
HETATM   32  O   UNL     1      15.630   5.262  93.833  1.00  0.00    -0.278 OA
HETATM   33  N   UNL     1      16.762   3.272  94.124  1.00  0.00    -0.271 NA
HETATM   34  H   UNL     1      16.871   2.273  93.993  1.00  0.00     0.127 HD
HETATM   35  H   UNL     1      18.012   3.171  93.493  1.00  0.00     0.127 HD
ENDBRANCH  26  31
ENDBRANCH  24  26
ENDBRANCH  19  22
ENDBRANCH  15  16
ENDBRANCH  11  14
ENDBRANCH   7   8
ENDBRANCH   2   7
TORSDOF 9
ENDMDL
MODEL 6
REMARK VINA RESULT:      -5.5      1.601     12.331
REMARK  9 active torsions:
REMARK  status: ('A' for Active; 'I' for Inactive)
REMARK    1  A    between atoms: O_2  and  C_17 
REMARK    2  A    between atoms: N_5  and  C_10 
REMARK    3  A    between atoms: N_6  and  C_14 
REMARK       I    between atoms: N_6  and  C_23 
REMARK       I    between atoms: N_7  and  C_22 
REMARK    4  A    between atoms: C_10  and  C_13 
REMARK    5  A    between atoms: C_14  and  C_17 
REMARK    6  A    between atoms: C_14  and  C_22 
REMARK    7  A    between atoms: C_20  and  C_25 
REMARK    8  A    between atoms: C_23  and  C_24 
REMARK    9  A    between atoms: C_28  and  C_31 
ROOT
HETATM    1  O   UNL     1       3.520  14.302  92.416  1.00  0.00    -0.388 OA
HETATM    2  N   UNL     1       3.630  13.238  89.778  1.00  0.00     0.096 N 
HETATM    3  C   UNL     1       2.737  12.672  90.798  1.00  0.00     0.299 C 
HETATM    4  C   UNL     1       4.813  13.831  90.418  1.00  0.00     0.299 C 
HETATM    5  C   UNL     1       2.351  13.752  91.806  1.00  0.00     0.198 C 
HETATM    6  C   UNL     1       4.380  14.882  91.434  1.00  0.00     0.198 C 
ENDROOT
BRANCH   2   7
HETATM    7  C   UNL     1       4.021  12.217  88.808  1.00  0.00     0.311 C 
BRANCH   7   8
HETATM    8  C   UNL     1       4.994  11.240  89.372  1.00  0.00    -0.030 A 
HETATM    9  C   UNL     1       6.365  11.455  89.220  1.00  0.00     0.010 A 
HETATM   10  C   UNL     1       7.277  10.540  89.746  1.00  0.00     0.021 A 
HETATM   11  C   UNL     1       6.818   9.412  90.425  1.00  0.00     0.018 A 
HETATM   12  C   UNL     1       5.450   9.196  90.578  1.00  0.00     0.021 A 
HETATM   13  C   UNL     1       4.538  10.110  90.051  1.00  0.00     0.010 A 
BRANCH  11  14
HETATM   14  C   UNL     1       7.754   8.475  90.966  1.00  0.00    -0.061 C 
HETATM   15  C   UNL     1       8.541   7.688  91.421  1.00  0.00    -0.061 C 
BRANCH  15  16
HETATM   16  C   UNL     1       9.476   6.752  91.963  1.00  0.00     0.018 A 
HETATM   17  C   UNL     1      10.081   5.810  91.129  1.00  0.00     0.022 A 
HETATM   18  C   UNL     1      10.996   4.899  91.657  1.00  0.00     0.018 A 
HETATM   19  C   UNL     1      11.285   4.950  93.005  1.00  0.00     0.032 A 
HETATM   20  C   UNL     1      10.700   5.870  93.849  1.00  0.00     0.018 A 
HETATM   21  C   UNL     1       9.785   6.782  93.322  1.00  0.00     0.022 A 
BRANCH  19  22
HETATM   22  C   UNL     1      12.258   3.978  93.567  1.00  0.00     0.252 C 
HETATM   23  O   UNL     1      11.840   2.965  94.124  1.00  0.00    -0.268 OA
HETATM   24  N   UNL     1      13.599   4.289  93.392  1.00  0.00    -0.342 N 
HETATM   25  H   UNL     1      13.870   5.132  92.899  1.00  0.00     0.163 HD
BRANCH  24  26
HETATM   26  C   UNL     1      14.661   3.434  93.859  1.00  0.00     0.199 C 
BRANCH  26  27
HETATM   27  C   UNL     1      14.779   2.137  93.049  1.00  0.00     0.145 C 
HETATM   28  C   UNL     1      14.667   0.892  93.921  1.00  0.00     0.042 C 
BRANCH  27  29
HETATM   29  O   UNL     1      13.755   2.100  92.055  1.00  0.00    -0.393 OA
HETATM   30  H   UNL     1      13.084   1.453  92.333  1.00  0.00     0.210 HD
ENDBRANCH  27  29
ENDBRANCH  26  27
BRANCH  26  31
HETATM   31  C   UNL     1      15.958   4.236  93.814  1.00  0.00     0.220 C 
HETATM   32  O   UNL     1      15.984   5.465  93.773  1.00  0.00    -0.278 OA
HETATM   33  N   UNL     1      17.068   3.427  93.787  1.00  0.00    -0.271 NA
HETATM   34  H   UNL     1      17.079   2.415  93.730  1.00  0.00     0.127 HD
HETATM   35  H   UNL     1      17.942   3.182  92.716  1.00  0.00     0.127 HD
ENDBRANCH  26  31
ENDBRANCH  24  26
ENDBRANCH  19  22
ENDBRANCH  15  16
ENDBRANCH  11  14
ENDBRANCH   7   8
ENDBRANCH   2   7
TORSDOF 9
ENDMDL
MODEL 7
REMARK VINA RESULT:      -5.4      1.961     12.394
REMARK  9 active torsions:
REMARK  status: ('A' for Active; 'I' for Inactive)
REMARK    1  A    between atoms: O_2  and  C_17 
REMARK    2  A    between atoms: N_5  and  C_10 
REMARK    3  A    between atoms: N_6  and  C_14 
REMARK       I    between atoms: N_6  and  C_23 
REMARK       I    between atoms: N_7  and  C_22 
REMARK    4  A    between atoms: C_10  and  C_13 
REMARK    5  A    between atoms: C_14  and  C_17 
REMARK    6  A    between atoms: C_14  and  C_22 
REMARK    7  A    between atoms: C_20  and  C_25 
REMARK    8  A    between atoms: C_23  and  C_24 
REMARK    9  A    between atoms: C_28  and  C_31 
ROOT
HETATM    1  O   UNL     1       5.672  14.581  88.617  1.00  0.00    -0.388 OA
HETATM    2  N   UNL     1       3.716  13.144  90.105  1.00  0.00     0.096 N 
HETATM    3  C   UNL     1       4.491  14.236  90.709  1.00  0.00     0.299 C 
HETATM    4  C   UNL     1       4.499  12.500  89.041  1.00  0.00     0.299 C 
HETATM    5  C   UNL     1       4.906  15.234  89.631  1.00  0.00     0.198 C 
HETATM    6  C   UNL     1       4.914  13.538  88.003  1.00  0.00     0.198 C 
ENDROOT
BRANCH   2   7
HETATM    7  C   UNL     1       3.317  12.170  91.119  1.00  0.00     0.311 C 
BRANCH   7   8
HETATM    8  C   UNL     1       4.370  11.143  91.366  1.00  0.00    -0.030 A 
HETATM    9  C   UNL     1       5.224  11.271  92.462  1.00  0.00     0.010 A 
HETATM   10  C   UNL     1       6.210  10.313  92.693  1.00  0.00     0.021 A 
HETATM   11  C   UNL     1       6.341   9.226  91.829  1.00  0.00     0.018 A 
HETATM   12  C   UNL     1       5.489   9.098  90.734  1.00  0.00     0.021 A 
HETATM   13  C   UNL     1       4.503  10.056  90.502  1.00  0.00     0.010 A 
BRANCH  11  14
HETATM   14  C   UNL     1       7.352   8.242  92.067  1.00  0.00    -0.061 C 
HETATM   15  C   UNL     1       8.202   7.415  92.266  1.00  0.00    -0.061 C 
BRANCH  15  16
HETATM   16  C   UNL     1       9.213   6.432  92.504  1.00  0.00     0.018 A 
HETATM   17  C   UNL     1       9.621   5.589  91.470  1.00  0.00     0.022 A 
HETATM   18  C   UNL     1      10.609   4.632  91.702  1.00  0.00     0.018 A 
HETATM   19  C   UNL     1      11.166   4.540  92.959  1.00  0.00     0.032 A 
HETATM   20  C   UNL     1      10.780   5.362  93.998  1.00  0.00     0.018 A 
HETATM   21  C   UNL     1       9.792   6.319  93.768  1.00  0.00     0.022 A 
BRANCH  19  22
HETATM   22  C   UNL     1      12.218   3.519  93.206  1.00  0.00     0.252 C 
HETATM   23  O   UNL     1      12.004   2.351  92.892  1.00  0.00    -0.268 OA
HETATM   24  N   UNL     1      13.399   3.986  93.765  1.00  0.00    -0.342 N 
HETATM   25  H   UNL     1      13.513   4.970  93.976  1.00  0.00     0.163 HD
BRANCH  24  26
HETATM   26  C   UNL     1      14.520   3.123  94.041  1.00  0.00     0.199 C 
BRANCH  26  27
HETATM   27  C   UNL     1      14.588   1.917  93.096  1.00  0.00     0.145 C 
HETATM   28  C   UNL     1      15.503   2.162  91.902  1.00  0.00     0.042 C 
BRANCH  27  29
HETATM   29  O   UNL     1      15.057   0.775  93.813  1.00  0.00    -0.393 OA
HETATM   30  H   UNL     1      15.298   0.089  93.168  1.00  0.00     0.210 HD
ENDBRANCH  27  29
ENDBRANCH  26  27
BRANCH  26  31
HETATM   31  C   UNL     1      15.788   3.966  93.957  1.00  0.00     0.220 C 
HETATM   32  O   UNL     1      15.772   5.188  93.821  1.00  0.00    -0.278 OA
HETATM   33  N   UNL     1      16.926   3.199  94.010  1.00  0.00    -0.271 NA
HETATM   34  H   UNL     1      16.975   2.187  94.031  1.00  0.00     0.127 HD
HETATM   35  H   UNL     1      17.829   2.905  92.975  1.00  0.00     0.127 HD
ENDBRANCH  26  31
ENDBRANCH  24  26
ENDBRANCH  19  22
ENDBRANCH  15  16
ENDBRANCH  11  14
ENDBRANCH   7   8
ENDBRANCH   2   7
TORSDOF 9
ENDMDL
MODEL 8
REMARK VINA RESULT:      -5.3      1.693      2.164
REMARK  9 active torsions:
REMARK  status: ('A' for Active; 'I' for Inactive)
REMARK    1  A    between atoms: O_2  and  C_17 
REMARK    2  A    between atoms: N_5  and  C_10 
REMARK    3  A    between atoms: N_6  and  C_14 
REMARK       I    between atoms: N_6  and  C_23 
REMARK       I    between atoms: N_7  and  C_22 
REMARK    4  A    between atoms: C_10  and  C_13 
REMARK    5  A    between atoms: C_14  and  C_17 
REMARK    6  A    between atoms: C_14  and  C_22 
REMARK    7  A    between atoms: C_20  and  C_25 
REMARK    8  A    between atoms: C_23  and  C_24 
REMARK    9  A    between atoms: C_28  and  C_31 
ROOT
HETATM    1  O   UNL     1      16.337   2.459  92.007  1.00  0.00    -0.388 OA
HETATM    2  N   UNL     1      13.867   2.976  93.324  1.00  0.00     0.096 N 
HETATM    3  C   UNL     1      14.889   2.108  93.923  1.00  0.00     0.299 C 
HETATM    4  C   UNL     1      13.962   2.928  91.858  1.00  0.00     0.299 C 
HETATM    5  C   UNL     1      16.274   2.524  93.433  1.00  0.00     0.198 C 
HETATM    6  C   UNL     1      15.367   3.325  91.417  1.00  0.00     0.198 C 
ENDROOT
BRANCH   2   7
HETATM    7  C   UNL     1      12.531   2.588  93.771  1.00  0.00     0.311 C 
BRANCH   7   8
HETATM    8  C   UNL     1      11.494   3.593  93.401  1.00  0.00    -0.030 A 
HETATM    9  C   UNL     1      11.387   4.782  94.124  1.00  0.00     0.010 A 
HETATM   10  C   UNL     1      10.415   5.722  93.780  1.00  0.00     0.021 A 
HETATM   11  C   UNL     1       9.553   5.473  92.713  1.00  0.00     0.018 A 
HETATM   12  C   UNL     1       9.659   4.287  91.990  1.00  0.00     0.021 A 
HETATM   13  C   UNL     1      10.630   3.346  92.334  1.00  0.00     0.010 A 
BRANCH  11  14
HETATM   14  C   UNL     1       8.558   6.439  92.359  1.00  0.00    -0.061 C 
HETATM   15  C   UNL     1       7.721   7.250  92.062  1.00  0.00    -0.061 C 
BRANCH  15  16
HETATM   16  C   UNL     1       6.727   8.215  91.709  1.00  0.00     0.018 A 
HETATM   17  C   UNL     1       5.531   7.800  91.123  1.00  0.00     0.022 A 
HETATM   18  C   UNL     1       4.561   8.742  90.781  1.00  0.00     0.018 A 
HETATM   19  C   UNL     1       4.807  10.075  91.034  1.00  0.00     0.032 A 
HETATM   20  C   UNL     1       5.981  10.510  91.612  1.00  0.00     0.018 A 
HETATM   21  C   UNL     1       6.953   9.569  91.954  1.00  0.00     0.022 A 
BRANCH  19  22
HETATM   22  C   UNL     1       3.773  11.078  90.667  1.00  0.00     0.252 C 
HETATM   23  O   UNL     1       2.711  10.695  90.183  1.00  0.00    -0.268 OA
HETATM   24  N   UNL     1       4.091  12.403  90.932  1.00  0.00    -0.342 N 
HETATM   25  H   UNL     1       4.979  12.642  91.357  1.00  0.00     0.163 HD
BRANCH  24  26
HETATM   26  C   UNL     1       3.184  13.488  90.656  1.00  0.00     0.199 C 
BRANCH  26  27
HETATM   27  C   UNL     1       2.671  14.171  91.930  1.00  0.00     0.145 C 
HETATM   28  C   UNL     1       1.670  13.310  92.692  1.00  0.00     0.042 C 
BRANCH  27  29
HETATM   29  O   UNL     1       3.772  14.470  92.788  1.00  0.00    -0.393 OA
HETATM   30  H   UNL     1       3.649  13.986  93.622  1.00  0.00     0.210 HD
ENDBRANCH  27  29
ENDBRANCH  26  27
BRANCH  26  31
HETATM   31  C   UNL     1       3.904  14.478  89.748  1.00  0.00     0.220 C 
HETATM   32  O   UNL     1       4.182  15.625  90.094  1.00  0.00    -0.278 OA
HETATM   33  N   UNL     1       4.164  13.950  88.506  1.00  0.00    -0.271 NA
HETATM   34  H   UNL     1       3.871  13.044  88.159  1.00  0.00     0.127 HD
HETATM   35  H   UNL     1       3.555  14.263  87.281  1.00  0.00     0.127 HD
ENDBRANCH  26  31
ENDBRANCH  24  26
ENDBRANCH  19  22
ENDBRANCH  15  16
ENDBRANCH  11  14
ENDBRANCH   7   8
ENDBRANCH   2   7
TORSDOF 9
ENDMDL
MODEL 9
REMARK VINA RESULT:      -4.8      2.216     12.393
REMARK  9 active torsions:
REMARK  status: ('A' for Active; 'I' for Inactive)
REMARK    1  A    between atoms: O_2  and  C_17 
REMARK    2  A    between atoms: N_5  and  C_10 
REMARK    3  A    between atoms: N_6  and  C_14 
REMARK       I    between atoms: N_6  and  C_23 
REMARK       I    between atoms: N_7  and  C_22 
REMARK    4  A    between atoms: C_10  and  C_13 
REMARK    5  A    between atoms: C_14  and  C_17 
REMARK    6  A    between atoms: C_14  and  C_22 
REMARK    7  A    between atoms: C_20  and  C_25 
REMARK    8  A    between atoms: C_23  and  C_24 
REMARK    9  A    between atoms: C_28  and  C_31 
ROOT
HETATM    1  O   UNL     1       4.880  14.475  89.429  1.00  0.00    -0.388 OA
HETATM    2  N   UNL     1       3.312  13.028  91.313  1.00  0.00     0.096 N 
HETATM    3  C   UNL     1       3.982  14.285  91.676  1.00  0.00     0.299 C 
HETATM    4  C   UNL     1       4.065  12.344  90.253  1.00  0.00     0.299 C 
HETATM    5  C   UNL     1       4.137  15.163  90.437  1.00  0.00     0.198 C 
HETATM    6  C   UNL     1       4.220  13.267  89.049  1.00  0.00     0.198 C 
ENDROOT
BRANCH   2   7
HETATM    7  C   UNL     1       3.162  12.165  92.484  1.00  0.00     0.311 C 
BRANCH   7   8
HETATM    8  C   UNL     1       4.232  11.130  92.567  1.00  0.00    -0.030 A 
HETATM    9  C   UNL     1       4.111   9.942  91.845  1.00  0.00     0.010 A 
HETATM   10  C   UNL     1       5.110   8.973  91.925  1.00  0.00     0.021 A 
HETATM   11  C   UNL     1       6.231   9.193  92.724  1.00  0.00     0.018 A 
HETATM   12  C   UNL     1       6.354  10.378  93.445  1.00  0.00     0.021 A 
HETATM   13  C   UNL     1       5.354  11.348  93.367  1.00  0.00     0.010 A 
BRANCH  11  14
HETATM   14  C   UNL     1       7.258   8.199  92.804  1.00  0.00    -0.061 C 
HETATM   15  C   UNL     1       8.120   7.364  92.872  1.00  0.00    -0.061 C 
BRANCH  15  16
HETATM   16  C   UNL     1       9.145   6.370  92.952  1.00  0.00     0.018 A 
HETATM   17  C   UNL     1      10.241   6.566  93.792  1.00  0.00     0.022 A 
HETATM   18  C   UNL     1      11.239   5.596  93.872  1.00  0.00     0.018 A 
HETATM   19  C   UNL     1      11.119   4.452  93.112  1.00  0.00     0.032 A 
HETATM   20  C   UNL     1      10.046   4.234  92.273  1.00  0.00     0.018 A 
HETATM   21  C   UNL     1       9.047   5.204  92.192  1.00  0.00     0.022 A 
BRANCH  19  22
HETATM   22  C   UNL     1      12.184   3.419  93.196  1.00  0.00     0.252 C 
HETATM   23  O   UNL     1      11.874   2.231  93.136  1.00  0.00    -0.268 OA
HETATM   24  N   UNL     1      13.483   3.893  93.314  1.00  0.00    -0.342 N 
HETATM   25  H   UNL     1      13.666   4.890  93.332  1.00  0.00     0.163 HD
BRANCH  24  26
HETATM   26  C   UNL     1      14.625   3.017  93.382  1.00  0.00     0.199 C 
BRANCH  26  27
HETATM   27  C   UNL     1      14.959   2.371  92.032  1.00  0.00     0.145 C 
HETATM   28  C   UNL     1      14.705   3.309  90.857  1.00  0.00     0.042 C 
BRANCH  27  29
HETATM   29  O   UNL     1      16.330   1.973  92.019  1.00  0.00    -0.393 OA
HETATM   30  H   UNL     1      16.435   1.263  91.363  1.00  0.00     0.210 HD
ENDBRANCH  27  29
ENDBRANCH  26  27
BRANCH  26  31
HETATM   31  C   UNL     1      15.803   3.827  93.915  1.00  0.00     0.220 C 
HETATM   32  O   UNL     1      15.749   5.041  94.105  1.00  0.00    -0.278 OA
HETATM   33  N   UNL     1      16.919   3.052  94.115  1.00  0.00    -0.271 NA
HETATM   34  H   UNL     1      17.025   2.070  93.886  1.00  0.00     0.127 HD
HETATM   35  H   UNL     1      18.109   3.029  93.370  1.00  0.00     0.127 HD
ENDBRANCH  26  31
ENDBRANCH  24  26
ENDBRANCH  19  22
ENDBRANCH  15  16
ENDBRANCH  11  14
ENDBRANCH   7   8
ENDBRANCH   2   7
TORSDOF 9
ENDMDL
