MODEL 1
REMARK VINA RESULT:      -7.0      0.000      0.000
REMARK  10 active torsions:
REMARK  status: ('A' for Active; 'I' for Inactive)
REMARK    1  A    between atoms: O_2  and  C_18 
REMARK    2  A    between atoms: O_5  and  N_8 
REMARK    3  A    between atoms: N_6  and  C_11 
REMARK    4  A    between atoms: N_7  and  C_15 
REMARK       I    between atoms: N_7  and  C_24 
REMARK       I    between atoms: N_8  and  C_23 
REMARK    5  A    between atoms: C_11  and  C_14 
REMARK    6  A    between atoms: C_15  and  C_18 
REMARK    7  A    between atoms: C_15  and  C_23 
REMARK    8  A    between atoms: C_21  and  C_26 
REMARK    9  A    between atoms: C_24  and  C_25 
REMARK   10  A    between atoms: C_29  and  C_32 
ROOT
HETATM    1  O   UNK     0      17.178   4.262  93.801  0.00  0.00    -0.388 OA
HETATM    2  N   UNK     0      14.750   2.789  93.619  0.00  0.00     0.096 N 
HETATM    3  C   UNK     0      16.049   2.166  93.331  0.00  0.00     0.299 C 
HETATM    4  C   UNK     0      14.801   4.225  93.315  0.00  0.00     0.299 C 
HETATM    5  C   UNK     0      17.147   2.871  94.124  0.00  0.00     0.198 C 
HETATM    6  C   UNK     0      15.928   4.882  94.108  0.00  0.00     0.198 C 
ENDROOT
BRANCH   2   7
HETATM    7  C   UNK     0      13.684   2.136  92.861  0.00  0.00     0.311 C 
BRANCH   7   8
HETATM    8  C   UNK     0      12.608   3.087  92.459  0.00  0.00    -0.030 A 
HETATM    9  C   UNK     0      12.238   3.192  91.118  0.00  0.00     0.010 A 
HETATM   10  C   UNK     0      11.234   4.083  90.740  0.00  0.00     0.021 A 
HETATM   11  C   UNK     0      10.599   4.866  91.703  0.00  0.00     0.018 A 
HETATM   12  C   UNK     0      10.968   4.761  93.043  0.00  0.00     0.021 A 
HETATM   13  C   UNK     0      11.972   3.871  93.421  0.00  0.00     0.010 A 
BRANCH  11  14
HETATM   14  C   UNK     0       9.567   5.778  91.315  0.00  0.00    -0.061 C 
HETATM   15  C   UNK     0       8.700   6.545  90.989  0.00  0.00    -0.061 C 
BRANCH  15  16
HETATM   16  C   UNK     0       7.670   7.456  90.601  0.00  0.00     0.018 A 
HETATM   17  C   UNK     0       7.928   8.827  90.569  0.00  0.00     0.022 A 
HETATM   18  C   UNK     0       6.924   9.716  90.188  0.00  0.00     0.018 A 
HETATM   19  C   UNK     0       5.685   9.216  89.847  0.00  0.00     0.032 A 
HETATM   20  C   UNK     0       5.404   7.866  89.870  0.00  0.00     0.018 A 
HETATM   21  C   UNK     0       6.408   6.976  90.252  0.00  0.00     0.022 A 
BRANCH  19  22
HETATM   22  C   UNK     0       4.614  10.165  89.443  0.00  0.00     0.252 C 
HETATM   23  O   UNK     0       3.836   9.845  88.548  0.00  0.00    -0.268 OA
HETATM   24  N   UNK     0       4.565  11.361  90.146  0.00  0.00    -0.341 N 
HETATM   25  H   UNK     0       5.226  11.546  90.890  0.00  0.00     0.163 HD
BRANCH  24  26
HETATM   26  C   UNK     0       3.570  12.371  89.887  0.00  0.00     0.207 C 
BRANCH  26  27
HETATM   27  C   UNK     0       3.102  13.082  91.163  0.00  0.00     0.146 C 
HETATM   28  C   UNK     0       2.120  12.243  91.973  0.00  0.00     0.042 C 
BRANCH  27  29
HETATM   29  O   UNK     0       4.231  13.391  91.979  0.00  0.00    -0.393 OA
HETATM   30  H   UNK     0       4.995  12.892  91.644  0.00  0.00     0.210 HD
ENDBRANCH  27  29
ENDBRANCH  26  27
BRANCH  26  31
HETATM   31  C   UNK     0       4.159  13.359  88.886  0.00  0.00     0.266 C 
HETATM   32  O   UNK     0       4.415  14.528  89.169  0.00  0.00    -0.269 OA
HETATM   33  N   UNK     0       4.327  12.799  87.642  0.00  0.00    -0.236 N 
HETATM   34  H   UNK     0       4.045  11.870  87.352  0.00  0.00     0.197 HD
BRANCH  33  35
HETATM   35  O   UNK     0       4.830  13.654  86.651  0.00  0.00    -0.287 OA
HETATM   36  H   UNK     0       4.874  14.489  87.148  0.00  0.00     0.244 HD
ENDBRANCH  33  35
ENDBRANCH  26  31
ENDBRANCH  24  26
ENDBRANCH  19  22
ENDBRANCH  15  16
ENDBRANCH  11  14
ENDBRANCH   7   8
ENDBRANCH   2   7
TORSDOF 10
ENDMDL
MODEL 2
REMARK VINA RESULT:      -6.5      1.415      1.569
REMARK  10 active torsions:
REMARK  status: ('A' for Active; 'I' for Inactive)
REMARK    1  A    between atoms: O_2  and  C_18 
REMARK    2  A    between atoms: O_5  and  N_8 
REMARK    3  A    between atoms: N_6  and  C_11 
REMARK    4  A    between atoms: N_7  and  C_15 
REMARK       I    between atoms: N_7  and  C_24 
REMARK       I    between atoms: N_8  and  C_23 
REMARK    5  A    between atoms: C_11  and  C_14 
REMARK    6  A    between atoms: C_15  and  C_18 
REMARK    7  A    between atoms: C_15  and  C_23 
REMARK    8  A    between atoms: C_21  and  C_26 
REMARK    9  A    between atoms: C_24  and  C_25 
REMARK   10  A    between atoms: C_29  and  C_32 
ROOT
HETATM    1  O   UNK     0      16.852   3.776  93.826  0.00  0.00    -0.388 OA
HETATM    2  N   UNK     0      14.245   3.022  92.966  0.00  0.00     0.096 N 
HETATM    3  C   UNK     0      15.338   2.044  93.053  0.00  0.00     0.299 C 
HETATM    4  C   UNK     0      14.787   4.360  92.692  0.00  0.00     0.299 C 
HETATM    5  C   UNK     0      16.336   2.477  94.124  0.00  0.00     0.198 C 
HETATM    6  C   UNK     0      15.799   4.739  93.770  0.00  0.00     0.198 C 
ENDROOT
BRANCH   2   7
HETATM    7  C   UNK     0      13.281   2.632  91.938  0.00  0.00     0.311 C 
BRANCH   7   8
HETATM    8  C   UNK     0      12.147   3.593  91.829  0.00  0.00    -0.030 A 
HETATM    9  C   UNK     0      11.851   4.186  90.601  0.00  0.00     0.010 A 
HETATM   10  C   UNK     0      10.791   5.086  90.498  0.00  0.00     0.021 A 
HETATM   11  C   UNK     0      10.027   5.393  91.624  0.00  0.00     0.018 A 
HETATM   12  C   UNK     0      10.321   4.802  92.851  0.00  0.00     0.021 A 
HETATM   13  C   UNK     0      11.381   3.902  92.954  0.00  0.00     0.010 A 
BRANCH  11  14
HETATM   14  C   UNK     0       8.938   6.315  91.518  0.00  0.00    -0.061 C 
HETATM   15  C   UNK     0       8.024   7.091  91.429  0.00  0.00    -0.061 C 
BRANCH  15  16
HETATM   16  C   UNK     0       6.936   8.012  91.324  0.00  0.00     0.018 A 
HETATM   17  C   UNK     0       7.185   9.352  91.025  0.00  0.00     0.022 A 
HETATM   18  C   UNK     0       6.124  10.252  90.921  0.00  0.00     0.018 A 
HETATM   19  C   UNK     0       4.839   9.792  91.117  0.00  0.00     0.032 A 
HETATM   20  C   UNK     0       4.566   8.473  91.414  0.00  0.00     0.018 A 
HETATM   21  C   UNK     0       5.627   7.573  91.519  0.00  0.00     0.022 A 
BRANCH  19  22
HETATM   22  C   UNK     0       3.709  10.751  91.008  0.00  0.00     0.252 C 
HETATM   23  O   UNK     0       2.664  10.388  90.472  0.00  0.00    -0.268 OA
HETATM   24  N   UNK     0       3.923  12.007  91.558  0.00  0.00    -0.341 N 
HETATM   25  H   UNK     0       4.804  12.227  92.007  0.00  0.00     0.163 HD
BRANCH  24  26
HETATM   26  C   UNK     0       2.915  13.037  91.553  0.00  0.00     0.207 C 
BRANCH  26  27
HETATM   27  C   UNK     0       2.866  13.826  92.868  0.00  0.00     0.146 C 
HETATM   28  C   UNK     0       3.953  13.397  93.847  0.00  0.00     0.042 C 
BRANCH  27  29
HETATM   29  O   UNK     0       3.011  15.219  92.594  0.00  0.00    -0.393 OA
HETATM   30  H   UNK     0       3.877  15.359  92.176  0.00  0.00     0.210 HD
ENDBRANCH  27  29
ENDBRANCH  26  27
BRANCH  26  31
HETATM   31  C   UNK     0       3.193  13.955  90.366  0.00  0.00     0.266 C 
HETATM   32  O   UNK     0       2.302  14.510  89.726  0.00  0.00    -0.269 OA
HETATM   33  N   UNK     0       4.535  14.048  90.086  0.00  0.00    -0.236 N 
HETATM   34  H   UNK     0       5.286  13.536  90.534  0.00  0.00     0.197 HD
BRANCH  33  35
HETATM   35  O   UNK     0       4.873  14.844  88.982  0.00  0.00    -0.287 OA
HETATM   36  H   UNK     0       5.562  14.293  88.574  0.00  0.00     0.244 HD
ENDBRANCH  33  35
ENDBRANCH  26  31
ENDBRANCH  24  26
ENDBRANCH  19  22
ENDBRANCH  15  16
ENDBRANCH  11  14
ENDBRANCH   7   8
ENDBRANCH   2   7
TORSDOF 10
ENDMDL
MODEL 3
REMARK VINA RESULT:      -5.7      2.956     12.306
REMARK  10 active torsions:
REMARK  status: ('A' for Active; 'I' for Inactive)
REMARK    1  A    between atoms: O_2  and  C_18 
REMARK    2  A    between atoms: O_5  and  N_8 
REMARK    3  A    between atoms: N_6  and  C_11 
REMARK    4  A    between atoms: N_7  and  C_15 
REMARK       I    between atoms: N_7  and  C_24 
REMARK       I    between atoms: N_8  and  C_23 
REMARK    5  A    between atoms: C_11  and  C_14 
REMARK    6  A    between atoms: C_15  and  C_18 
REMARK    7  A    between atoms: C_15  and  C_23 
REMARK    8  A    between atoms: C_21  and  C_26 
REMARK    9  A    between atoms: C_24  and  C_25 
REMARK   10  A    between atoms: C_29  and  C_32 
ROOT
HETATM    1  O   UNK     0       3.027  14.831  94.108  0.00  0.00    -0.388 OA
HETATM    2  N   UNK     0       2.800  14.771  91.271  0.00  0.00     0.096 N 
HETATM    3  C   UNK     0       1.810  14.113  92.134  0.00  0.00     0.299 C 
HETATM    4  C   UNK     0       4.109  14.798  91.936  0.00  0.00     0.299 C 
HETATM    5  C   UNK     0       1.742  14.828  93.482  0.00  0.00     0.198 C 
HETATM    6  C   UNK     0       3.989  15.496  93.288  0.00  0.00     0.198 C 
ENDROOT
BRANCH   2   7
HETATM    7  C   UNK     0       2.889  14.096  89.977  0.00  0.00     0.311 C 
BRANCH   7   8
HETATM    8  C   UNK     0       3.885  12.986  89.983  0.00  0.00    -0.030 A 
HETATM    9  C   UNK     0       5.060  13.102  89.239  0.00  0.00     0.010 A 
HETATM   10  C   UNK     0       5.992  12.064  89.242  0.00  0.00     0.021 A 
HETATM   11  C   UNK     0       5.749  10.913  89.990  0.00  0.00     0.018 A 
HETATM   12  C   UNK     0       4.577  10.797  90.734  0.00  0.00     0.021 A 
HETATM   13  C   UNK     0       3.644  11.834  90.731  0.00  0.00     0.010 A 
BRANCH  11  14
HETATM   14  C   UNK     0       6.706   9.849  89.995  0.00  0.00    -0.061 C 
HETATM   15  C   UNK     0       7.510   8.955  89.999  0.00  0.00    -0.061 C 
BRANCH  15  16
HETATM   16  C   UNK     0       8.467   7.894  90.003  0.00  0.00     0.018 A 
HETATM   17  C   UNK     0       9.225   7.634  88.861  0.00  0.00     0.022 A 
HETATM   18  C   UNK     0      10.160   6.600  88.865  0.00  0.00     0.018 A 
HETATM   19  C   UNK     0      10.318   5.848  90.011  0.00  0.00     0.032 A 
HETATM   20  C   UNK     0       9.581   6.084  91.153  0.00  0.00     0.018 A 
HETATM   21  C   UNK     0       8.645   7.118  91.148  0.00  0.00     0.022 A 
BRANCH  19  22
HETATM   22  C   UNK     0      11.313   4.745  90.014  0.00  0.00     0.252 C 
HETATM   23  O   UNK     0      11.478   4.083  88.993  0.00  0.00    -0.268 OA
HETATM   24  N   UNK     0      12.013   4.562  91.199  0.00  0.00    -0.341 N 
HETATM   25  H   UNK     0      11.841   5.164  91.995  0.00  0.00     0.163 HD
BRANCH  24  26
HETATM   26  C   UNK     0      13.028   3.550  91.351  0.00  0.00     0.207 C 
BRANCH  26  27
HETATM   27  C   UNK     0      14.197   4.009  92.231  0.00  0.00     0.146 C 
HETATM   28  C   UNK     0      13.808   4.134  93.700  0.00  0.00     0.042 C 
BRANCH  27  29
HETATM   29  O   UNK     0      15.276   3.082  92.115  0.00  0.00    -0.393 OA
HETATM   30  H   UNK     0      16.110   3.575  92.181  0.00  0.00     0.210 HD
ENDBRANCH  27  29
ENDBRANCH  26  27
BRANCH  26  31
HETATM   31  C   UNK     0      12.360   2.303  91.923  0.00  0.00     0.266 C 
HETATM   32  O   UNK     0      12.919   1.209  91.976  0.00  0.00    -0.269 OA
HETATM   33  N   UNK     0      11.069   2.544  92.326  0.00  0.00    -0.236 N 
HETATM   34  H   UNK     0      10.550   3.408  92.215  0.00  0.00     0.197 HD
BRANCH  33  35
HETATM   35  O   UNK     0      10.370   1.438  92.829  0.00  0.00    -0.287 OA
HETATM   36  H   UNK     0       9.573   1.877  93.172  0.00  0.00     0.244 HD
ENDBRANCH  33  35
ENDBRANCH  26  31
ENDBRANCH  24  26
ENDBRANCH  19  22
ENDBRANCH  15  16
ENDBRANCH  11  14
ENDBRANCH   7   8
ENDBRANCH   2   7
TORSDOF 10
ENDMDL
MODEL 4
REMARK VINA RESULT:      -5.5      1.929      3.031
REMARK  10 active torsions:
REMARK  status: ('A' for Active; 'I' for Inactive)
REMARK    1  A    between atoms: O_2  and  C_18 
REMARK    2  A    between atoms: O_5  and  N_8 
REMARK    3  A    between atoms: N_6  and  C_11 
REMARK    4  A    between atoms: N_7  and  C_15 
REMARK       I    between atoms: N_7  and  C_24 
REMARK       I    between atoms: N_8  and  C_23 
REMARK    5  A    between atoms: C_11  and  C_14 
REMARK    6  A    between atoms: C_15  and  C_18 
REMARK    7  A    between atoms: C_15  and  C_23 
REMARK    8  A    between atoms: C_21  and  C_26 
REMARK    9  A    between atoms: C_24  and  C_25 
REMARK   10  A    between atoms: C_29  and  C_32 
ROOT
HETATM    1  O   UNK     0      15.480   4.510  92.690  0.00  0.00    -0.388 OA
HETATM    2  N   UNK     0      13.386   2.686  92.066  0.00  0.00     0.096 N 
HETATM    3  C   UNK     0      13.515   3.973  91.370  0.00  0.00     0.299 C 
HETATM    4  C   UNK     0      13.933   2.791  93.425  0.00  0.00     0.299 C 
HETATM    5  C   UNK     0      14.979   4.408  91.356  0.00  0.00     0.198 C 
HETATM    6  C   UNK     0      15.386   3.254  93.364  0.00  0.00     0.198 C 
ENDROOT
BRANCH   2   7
HETATM    7  C   UNK     0      11.990   2.254  92.101  0.00  0.00     0.311 C 
BRANCH   7   8
HETATM    8  C   UNK     0      11.039   3.396  91.986  0.00  0.00    -0.030 A 
HETATM    9  C   UNK     0      10.341   3.604  90.796  0.00  0.00     0.010 A 
HETATM   10  C   UNK     0       9.453   4.674  90.686  0.00  0.00     0.021 A 
HETATM   11  C   UNK     0       9.262   5.534  91.768  0.00  0.00     0.018 A 
HETATM   12  C   UNK     0       9.958   5.327  92.957  0.00  0.00     0.021 A 
HETATM   13  C   UNK     0      10.847   4.258  93.066  0.00  0.00     0.010 A 
BRANCH  11  14
HETATM   14  C   UNK     0       8.349   6.630  91.656  0.00  0.00    -0.061 C 
HETATM   15  C   UNK     0       7.582   7.551  91.562  0.00  0.00    -0.061 C 
BRANCH  15  16
HETATM   16  C   UNK     0       6.671   8.646  91.449  0.00  0.00     0.018 A 
HETATM   17  C   UNK     0       6.851   9.602  90.448  0.00  0.00     0.022 A 
HETATM   18  C   UNK     0       5.961  10.670  90.336  0.00  0.00     0.018 A 
HETATM   19  C   UNK     0       4.911  10.758  91.226  0.00  0.00     0.032 A 
HETATM   20  C   UNK     0       4.710   9.827  92.224  0.00  0.00     0.018 A 
HETATM   21  C   UNK     0       5.601   8.760  92.336  0.00  0.00     0.022 A 
BRANCH  19  22
HETATM   22  C   UNK     0       3.964  11.897  91.108  0.00  0.00     0.252 C 
HETATM   23  O   UNK     0       2.850  11.704  90.626  0.00  0.00    -0.268 OA
HETATM   24  N   UNK     0       4.418  13.118  91.587  0.00  0.00    -0.341 N 
HETATM   25  H   UNK     0       5.342  13.197  91.995  0.00  0.00     0.163 HD
BRANCH  24  26
HETATM   26  C   UNK     0       3.609  14.310  91.564  0.00  0.00     0.207 C 
BRANCH  26  27
HETATM   27  C   UNK     0       3.443  14.889  90.153  0.00  0.00     0.146 C 
HETATM   28  C   UNK     0       4.766  14.980  89.401  0.00  0.00     0.042 C 
BRANCH  27  29
HETATM   29  O   UNK     0       2.540  14.075  89.406  0.00  0.00    -0.393 OA
HETATM   30  H   UNK     0       2.184  14.606  88.675  0.00  0.00     0.210 HD
ENDBRANCH  27  29
ENDBRANCH  26  27
BRANCH  26  31
HETATM   31  C   UNK     0       2.258  13.968  92.185  0.00  0.00     0.266 C 
HETATM   32  O   UNK     0       1.190  14.367  91.726  0.00  0.00    -0.269 OA
HETATM   33  N   UNK     0       2.387  13.206  93.321  0.00  0.00    -0.236 N 
HETATM   34  H   UNK     0       3.252  12.936  93.775  0.00  0.00     0.197 HD
BRANCH  33  35
HETATM   35  O   UNK     0       1.191  12.879  93.975  0.00  0.00    -0.287 OA
HETATM   36  H   UNK     0       1.480  12.108  94.493  0.00  0.00     0.244 HD
ENDBRANCH  33  35
ENDBRANCH  26  31
ENDBRANCH  24  26
ENDBRANCH  19  22
ENDBRANCH  15  16
ENDBRANCH  11  14
ENDBRANCH   7   8
ENDBRANCH   2   7
TORSDOF 10
ENDMDL
MODEL 5
REMARK VINA RESULT:      -5.3      1.965      2.556
REMARK  10 active torsions:
REMARK  status: ('A' for Active; 'I' for Inactive)
REMARK    1  A    between atoms: O_2  and  C_18 
REMARK    2  A    between atoms: O_5  and  N_8 
REMARK    3  A    between atoms: N_6  and  C_11 
REMARK    4  A    between atoms: N_7  and  C_15 
REMARK       I    between atoms: N_7  and  C_24 
REMARK       I    between atoms: N_8  and  C_23 
REMARK    5  A    between atoms: C_11  and  C_14 
REMARK    6  A    between atoms: C_15  and  C_18 
REMARK    7  A    between atoms: C_15  and  C_23 
REMARK    8  A    between atoms: C_21  and  C_26 
REMARK    9  A    between atoms: C_24  and  C_25 
REMARK   10  A    between atoms: C_29  and  C_32 
ROOT
HETATM    1  O   UNK     0      16.246   4.400  93.573  0.00  0.00    -0.388 OA
HETATM    2  N   UNK     0      14.209   2.588  92.755  0.00  0.00     0.096 N 
HETATM    3  C   UNK     0      14.285   3.953  92.216  0.00  0.00     0.299 C 
HETATM    4  C   UNK     0      14.770   2.551  94.112  0.00  0.00     0.299 C 
HETATM    5  C   UNK     0      15.732   4.439  92.241  0.00  0.00     0.198 C 
HETATM    6  C   UNK     0      16.205   3.070  94.093  0.00  0.00     0.198 C 
ENDROOT
BRANCH   2   7
HETATM    7  C   UNK     0      12.829   2.105  92.750  0.00  0.00     0.311 C 
BRANCH   7   8
HETATM    8  C   UNK     0      11.838   3.218  92.786  0.00  0.00    -0.030 A 
HETATM    9  C   UNK     0      10.875   3.326  91.782  0.00  0.00     0.010 A 
HETATM   10  C   UNK     0       9.948   4.368  91.814  0.00  0.00     0.021 A 
HETATM   11  C   UNK     0       9.985   5.301  92.850  0.00  0.00     0.018 A 
HETATM   12  C   UNK     0      10.946   5.194  93.853  0.00  0.00     0.021 A 
HETATM   13  C   UNK     0      11.873   4.152  93.821  0.00  0.00     0.010 A 
BRANCH  11  14
HETATM   14  C   UNK     0       9.033   6.368  92.884  0.00  0.00    -0.061 C 
HETATM   15  C   UNK     0       8.232   7.265  92.912  0.00  0.00    -0.061 C 
BRANCH  15  16
HETATM   16  C   UNK     0       7.282   8.332  92.944  0.00  0.00     0.018 A 
HETATM   17  C   UNK     0       6.407   8.518  91.873  0.00  0.00     0.022 A 
HETATM   18  C   UNK     0       5.478   9.558  91.905  0.00  0.00     0.018 A 
HETATM   19  C   UNK     0       5.444  10.388  93.006  0.00  0.00     0.032 A 
HETATM   20  C   UNK     0       6.298  10.226  94.077  0.00  0.00     0.018 A 
HETATM   21  C   UNK     0       7.228   9.186  94.045  0.00  0.00     0.022 A 
BRANCH  19  22
HETATM   22  C   UNK     0       4.455  11.497  93.039  0.00  0.00     0.252 C 
HETATM   23  O   UNK     0       4.098  11.950  94.123  0.00  0.00    -0.268 OA
HETATM   24  N   UNK     0       4.021  11.960  91.805  0.00  0.00    -0.341 N 
HETATM   25  H   UNK     0       4.379  11.553  90.949  0.00  0.00     0.163 HD
BRANCH  24  26
HETATM   26  C   UNK     0       3.083  13.045  91.671  0.00  0.00     0.207 C 
BRANCH  26  27
HETATM   27  C   UNK     0       3.400  14.223  92.602  0.00  0.00     0.146 C 
HETATM   28  C   UNK     0       4.529  15.099  92.070  0.00  0.00     0.042 C 
BRANCH  27  29
HETATM   29  O   UNK     0       2.231  15.025  92.772  0.00  0.00    -0.393 OA
HETATM   30  H   UNK     0       2.372  15.609  93.536  0.00  0.00     0.210 HD
ENDBRANCH  27  29
ENDBRANCH  26  27
BRANCH  26  31
HETATM   31  C   UNK     0       3.079  13.480  90.209  0.00  0.00     0.266 C 
HETATM   32  O   UNK     0       2.310  14.331  89.765  0.00  0.00    -0.269 OA
HETATM   33  N   UNK     0       3.996  12.785  89.459  0.00  0.00    -0.236 N 
HETATM   34  H   UNK     0       4.580  12.019  89.772  0.00  0.00     0.197 HD
BRANCH  33  35
HETATM   35  O   UNK     0       4.030  13.099  88.092  0.00  0.00    -0.287 OA
HETATM   36  H   UNK     0       4.622  12.399  87.768  0.00  0.00     0.244 HD
ENDBRANCH  33  35
ENDBRANCH  26  31
ENDBRANCH  24  26
ENDBRANCH  19  22
ENDBRANCH  15  16
ENDBRANCH  11  14
ENDBRANCH   7   8
ENDBRANCH   2   7
TORSDOF 10
ENDMDL
MODEL 6
REMARK VINA RESULT:      -5.2      2.067     12.515
REMARK  10 active torsions:
REMARK  status: ('A' for Active; 'I' for Inactive)
REMARK    1  A    between atoms: O_2  and  C_18 
REMARK    2  A    between atoms: O_5  and  N_8 
REMARK    3  A    between atoms: N_6  and  C_11 
REMARK    4  A    between atoms: N_7  and  C_15 
REMARK       I    between atoms: N_7  and  C_24 
REMARK       I    between atoms: N_8  and  C_23 
REMARK    5  A    between atoms: C_11  and  C_14 
REMARK    6  A    between atoms: C_15  and  C_18 
REMARK    7  A    between atoms: C_15  and  C_23 
REMARK    8  A    between atoms: C_21  and  C_26 
REMARK    9  A    between atoms: C_24  and  C_25 
REMARK   10  A    between atoms: C_29  and  C_32 
ROOT
HETATM    1  O   UNK     0       5.496  14.733  88.818  0.00  0.00    -0.388 OA
HETATM    2  N   UNK     0       3.619  13.285  90.393  0.00  0.00     0.096 N 
HETATM    3  C   UNK     0       4.298  14.479  90.913  0.00  0.00     0.299 C 
HETATM    4  C   UNK     0       4.471  12.613  89.402  0.00  0.00     0.299 C 
HETATM    5  C   UNK     0       4.662  15.411  89.760  0.00  0.00     0.198 C 
HETATM    6  C   UNK     0       4.832  13.588  88.284  0.00  0.00     0.198 C 
ENDROOT
BRANCH   2   7
HETATM    7  C   UNK     0       3.270  12.372  91.480  0.00  0.00     0.311 C 
BRANCH   7   8
HETATM    8  C   UNK     0       4.296  11.310  91.683  0.00  0.00    -0.030 A 
HETATM    9  C   UNK     0       4.114  10.048  91.116  0.00  0.00     0.010 A 
HETATM   10  C   UNK     0       5.073   9.053  91.306  0.00  0.00     0.021 A 
HETATM   11  C   UNK     0       6.214   9.322  92.061  0.00  0.00     0.018 A 
HETATM   12  C   UNK     0       6.397  10.582  92.627  0.00  0.00     0.021 A 
HETATM   13  C   UNK     0       5.439  11.577  92.438  0.00  0.00     0.010 A 
BRANCH  11  14
HETATM   14  C   UNK     0       7.198   8.302  92.255  0.00  0.00    -0.061 C 
HETATM   15  C   UNK     0       8.026   7.445  92.417  0.00  0.00    -0.061 C 
BRANCH  15  16
HETATM   16  C   UNK     0       9.010   6.427  92.609  0.00  0.00     0.018 A 
HETATM   17  C   UNK     0       9.741   6.380  93.797  0.00  0.00     0.022 A 
HETATM   18  C   UNK     0      10.701   5.385  93.986  0.00  0.00     0.018 A 
HETATM   19  C   UNK     0      10.907   4.459  92.985  0.00  0.00     0.032 A 
HETATM   20  C   UNK     0      10.197   4.483  91.802  0.00  0.00     0.018 A 
HETATM   21  C   UNK     0       9.239   5.479  91.612  0.00  0.00     0.022 A 
BRANCH  19  22
HETATM   22  C   UNK     0      11.930   3.400  93.186  0.00  0.00     0.252 C 
HETATM   23  O   UNK     0      11.675   2.248  92.846  0.00  0.00    -0.268 OA
HETATM   24  N   UNK     0      13.135   3.816  93.735  0.00  0.00    -0.341 N 
HETATM   25  H   UNK     0      13.283   4.791  93.968  0.00  0.00     0.163 HD
BRANCH  24  26
HETATM   26  C   UNK     0      14.233   2.913  93.968  0.00  0.00     0.207 C 
BRANCH  26  27
HETATM   27  C   UNK     0      14.267   1.749  92.970  0.00  0.00     0.146 C 
HETATM   28  C   UNK     0      15.017   2.100  91.690  0.00  0.00     0.042 C 
BRANCH  27  29
HETATM   29  O   UNK     0      14.890   0.617  93.577  0.00  0.00    -0.393 OA
HETATM   30  H   UNK     0      15.821   0.595  93.297  0.00  0.00     0.210 HD
ENDBRANCH  27  29
ENDBRANCH  26  27
BRANCH  26  31
HETATM   31  C   UNK     0      15.523   3.725  93.917  0.00  0.00     0.266 C 
HETATM   32  O   UNK     0      15.542   4.941  93.733  0.00  0.00    -0.269 OA
HETATM   33  N   UNK     0      16.639   2.937  94.059  0.00  0.00    -0.236 N 
HETATM   34  H   UNK     0      16.664   1.926  94.122  0.00  0.00     0.197 HD
BRANCH  33  35
HETATM   35  O   UNK     0      17.870   3.603  93.985  0.00  0.00    -0.287 OA
HETATM   36  H   UNK     0      17.580   4.522  94.118  0.00  0.00     0.244 HD
ENDBRANCH  33  35
ENDBRANCH  26  31
ENDBRANCH  24  26
ENDBRANCH  19  22
ENDBRANCH  15  16
ENDBRANCH  11  14
ENDBRANCH   7   8
ENDBRANCH   2   7
TORSDOF 10
ENDMDL
