MODEL 1
REMARK VINA RESULT:      -6.9      0.000      0.000
REMARK  14 active torsions:
REMARK  status: ('A' for Active; 'I' for Inactive)
REMARK    1  A    between atoms: O_2  and  C_18 
REMARK    2  A    between atoms: C_5  and  C_8 
REMARK    3  A    between atoms: C_5  and  O_35 
REMARK    4  A    between atoms: C_5  and  C_36 
REMARK    5  A    between atoms: N_6  and  C_11 
REMARK    6  A    between atoms: N_7  and  C_15 
REMARK       I    between atoms: N_7  and  C_24 
REMARK    7  A    between atoms: C_8  and  C_23 
REMARK    8  A    between atoms: C_11  and  C_14 
REMARK    9  A    between atoms: C_15  and  C_18 
REMARK   10  A    between atoms: C_15  and  C_23 
REMARK   11  A    between atoms: C_21  and  C_26 
REMARK   12  A    between atoms: C_24  and  C_25 
REMARK   13  A    between atoms: C_29  and  C_32 
REMARK   14  A    between atoms: C_36  and  O_39 
ROOT
HETATM    1  O   UNL     1      15.836   4.523  93.656  1.00  0.00    -0.350 OA
HETATM    2  N   UNL     1      14.098   2.683  92.354  1.00  0.00     0.147 N 
HETATM    3  C   UNL     1      14.251   4.064  91.876  1.00  0.00     0.283 C 
HETATM    4  C   UNL     1      14.337   2.622  93.803  1.00  0.00     0.283 C 
HETATM    5  C   UNL     1      15.638   4.587  92.242  1.00  0.00     0.178 C 
HETATM    6  C   UNL     1      15.720   3.179  94.124  1.00  0.00     0.178 C 
ENDROOT
BRANCH   2   7
HETATM    7  C   UNL     1      12.772   2.164  92.024  1.00  0.00     0.277 C 
BRANCH   7   8
HETATM    8  C   UNL     1      11.752   3.246  91.908  1.00  0.00     0.011 A 
HETATM    9  C   UNL     1      11.157   3.513  90.675  1.00  0.00    -0.002 A 
HETATM   10  C   UNL     1      10.204   4.526  90.565  1.00  0.00     0.008 A 
HETATM   11  C   UNL     1       9.846   5.269  91.689  1.00  0.00     0.042 A 
HETATM   12  C   UNL     1      10.439   5.003  92.922  1.00  0.00     0.008 A 
HETATM   13  C   UNL     1      11.393   3.990  93.031  1.00  0.00    -0.002 A 
BRANCH  11  14
HETATM   14  C   UNL     1       8.867   6.306  91.577  1.00  0.00    -0.059 C 
HETATM   15  C   UNL     1       8.044   7.178  91.483  1.00  0.00    -0.059 C 
BRANCH  15  16
HETATM   16  C   UNL     1       7.065   8.214  91.372  1.00  0.00     0.042 A 
HETATM   17  C   UNL     1       6.851   9.087  92.439  1.00  0.00     0.008 A 
HETATM   18  C   UNL     1       5.898  10.099  92.330  1.00  0.00     0.005 A 
HETATM   19  C   UNL     1       5.182  10.218  91.157  1.00  0.00     0.056 A 
HETATM   20  C   UNL     1       5.376   9.368  90.088  1.00  0.00     0.005 A 
HETATM   21  C   UNL     1       6.328   8.354  90.196  1.00  0.00     0.008 A 
BRANCH  19  22
HETATM   22  C   UNL     1       4.166  11.296  91.041  1.00  0.00     0.254 C 
HETATM   23  O   UNL     1       3.122  11.073  90.433  1.00  0.00    -0.268 OA
HETATM   24  N   UNL     1       4.477  12.494  91.668  1.00  0.00    -0.335 N 
HETATM   25  HN  UNL     1       5.350  12.597  92.173  1.00  0.00     0.164 HD
BRANCH  24  26
HETATM   26  C   UNL     1       3.584  13.625  91.666  1.00  0.00     0.169 C 
BRANCH  26  27
HETATM   27  C   UNL     1       3.299  14.158  93.076  1.00  0.00     0.138 C 
HETATM   28  C   UNL     1       4.472  13.949  94.027  1.00  0.00     0.034 C 
BRANCH  27  29
HETATM   29  O   UNL     1       3.000  15.552  93.007  1.00  0.00    -0.383 OA
HETATM   30  H   UNL     1       2.166  15.709  93.483  1.00  0.00     0.210 HD
ENDBRANCH  27  29
ENDBRANCH  26  27
BRANCH  26  31
HETATM   31  C   UNL     1       4.200  14.703  90.780  1.00  0.00     0.194 C 
HETATM   32  O   UNL     1       4.939  15.585  91.213  1.00  0.00    -0.289 OA
BRANCH  31  33
HETATM   33  C   UNL     1       3.800  14.589  89.470  1.00  0.00     0.053 C 
BRANCH  33  34
HETATM   34  C   UNL     1       4.806  14.255  88.552  1.00  0.00     0.220 C 
BRANCH  34  35
HETATM   35  O   UNL     1       5.904  14.503  89.085  1.00  0.00    -0.371 OA
HETATM   36  H   UNL     1       6.312  13.662  88.945  1.00  0.00     0.211 HD
ENDBRANCH  34  35
BRANCH  34  37
HETATM   37  C   UNL     1       4.724  12.931  88.088  1.00  0.00     0.185 C 
HETATM   38  O   UNL     1       6.005  12.904  88.423  1.00  0.00    -0.647 OA
BRANCH  37  39
HETATM   39  O   UNL     1       3.894  12.228  87.594  1.00  0.00    -0.774 OA
HETATM   40  H   UNL     1       4.335  11.242  87.245  1.00  0.00     0.167 HD
ENDBRANCH  37  39
ENDBRANCH  34  37
ENDBRANCH  33  34
ENDBRANCH  31  33
ENDBRANCH  26  31
ENDBRANCH  24  26
ENDBRANCH  19  22
ENDBRANCH  15  16
ENDBRANCH  11  14
ENDBRANCH   7   8
ENDBRANCH   2   7
TORSDOF 14
ENDMDL
