MODEL 1
REMARK VINA RESULT:      -6.8      0.000      0.000
REMARK  11 active torsions:
REMARK  status: ('A' for Active; 'I' for Inactive)
REMARK    1  A    between atoms: O_2  and  C_18 
REMARK    2  A    between atoms: O_5  and  P_8 
REMARK    3  A    between atoms: N_6  and  C_11 
REMARK    4  A    between atoms: N_7  and  C_15 
REMARK       I    between atoms: N_7  and  C_24 
REMARK    5  A    between atoms: P_8  and  C_23 
REMARK    6  A    between atoms: C_11  and  C_14 
REMARK    7  A    between atoms: C_15  and  C_18 
REMARK    8  A    between atoms: C_15  and  C_23 
REMARK    9  A    between atoms: C_21  and  C_26 
REMARK   10  A    between atoms: C_24  and  C_25 
REMARK   11  A    between atoms: C_29  and  C_32 
ROOT
HETATM    1  O   UNL     1      16.451   4.370  94.006  1.00  0.00     0.000 OA
HETATM    2  N   UNL     1      14.559   2.702  92.685  1.00  0.00     0.000 N 
HETATM    3  C   UNL     1      14.513   4.166  92.559  1.00  0.00     0.000 C 
HETATM    4  C   UNL     1      15.143   2.327  93.980  1.00  0.00     0.000 C 
HETATM    5  C   UNL     1      15.915   4.744  92.736  1.00  0.00     0.000 C 
HETATM    6  C   UNL     1      16.529   2.949  94.124  1.00  0.00     0.000 C 
ENDROOT
BRANCH   2   7
HETATM    7  C   UNL     1      13.225   2.127  92.530  1.00  0.00     0.000 C 
BRANCH   7   8
HETATM    8  C   UNL     1      12.199   3.154  92.190  1.00  0.00     0.000 A 
HETATM    9  C   UNL     1      11.735   3.267  90.879  1.00  0.00     0.000 A 
HETATM   10  C   UNL     1      10.777   4.229  90.558  1.00  0.00     0.000 A 
HETATM   11  C   UNL     1      10.283   5.076  91.550  1.00  0.00     0.000 A 
HETATM   12  C   UNL     1      10.745   4.964  92.859  1.00  0.00     0.000 A 
HETATM   13  C   UNL     1      11.704   4.002  93.180  1.00  0.00     0.000 A 
BRANCH  11  14
HETATM   14  C   UNL     1       9.299   6.061  91.222  1.00  0.00     0.000 C 
HETATM   15  C   UNL     1       8.472   6.889  90.945  1.00  0.00     0.000 C 
BRANCH  15  16
HETATM   16  C   UNL     1       7.488   7.873  90.618  1.00  0.00     0.000 A 
HETATM   17  C   UNL     1       7.885   9.131  90.163  1.00  0.00     0.000 A 
HETATM   18  C   UNL     1       6.925  10.090  89.841  1.00  0.00     0.000 A 
HETATM   19  C   UNL     1       5.590   9.770  89.980  1.00  0.00     0.000 A 
HETATM   20  C   UNL     1       5.172   8.535  90.428  1.00  0.00     0.000 A 
HETATM   21  C   UNL     1       6.131   7.575  90.750  1.00  0.00     0.000 A 
BRANCH  19  22
HETATM   22  C   UNL     1       4.568  10.793  89.639  1.00  0.00     0.000 C 
HETATM   23  O   UNL     1       3.572  10.457  89.003  1.00  0.00     0.000 OA
HETATM   24  N   UNL     1       4.816  12.078  90.101  1.00  0.00     0.000 N 
HETATM   25  HN  UNL     1       5.649  12.277  90.643  1.00  0.00     0.000 HD
BRANCH  24  26
HETATM   26  C   UNL     1       3.908  13.173  89.872  1.00  0.00     0.000 C 
BRANCH  26  27
HETATM   27  C   UNL     1       3.211  13.644  91.155  1.00  0.00     0.000 C 
HETATM   28  C   UNL     1       2.391  12.540  91.813  1.00  0.00     0.000 C 
BRANCH  27  29
HETATM   29  O   UNL     1       4.188  14.113  92.084  1.00  0.00     0.000 OA
HETATM   30  H   UNL     1       4.266  15.077  91.985  1.00  0.00     0.000 HD
ENDBRANCH  27  29
ENDBRANCH  26  27
BRANCH  26  31
HETATM   31  C   UNL     1       4.697  14.305  89.222  1.00  0.00     0.000 C 
HETATM   32  O   UNL     1       4.828  15.413  89.739  1.00  0.00     0.000 OA
BRANCH  31  33
HETATM   33  P   UNL     1       5.198  13.949  87.993  1.00  0.00     0.000 P 
HETATM   34  H   UNL     1       5.217  15.079  87.201  1.00  0.00     0.000 HD
BRANCH  33  35
HETATM   35  O   UNL     1       4.484  12.956  87.308  1.00  0.00     0.000 OA
HETATM   36  H   UNL     1       4.234  12.378  88.049  1.00  0.00     0.000 HD
ENDBRANCH  33  35
ENDBRANCH  31  33
ENDBRANCH  26  31
ENDBRANCH  24  26
ENDBRANCH  19  22
ENDBRANCH  15  16
ENDBRANCH  11  14
ENDBRANCH   7   8
ENDBRANCH   2   7
TORSDOF 11
ENDMDL
MODEL 2
REMARK VINA RESULT:      -6.5      2.075      2.989
REMARK  11 active torsions:
REMARK  status: ('A' for Active; 'I' for Inactive)
REMARK    1  A    between atoms: O_2  and  C_18 
REMARK    2  A    between atoms: O_5  and  P_8 
REMARK    3  A    between atoms: N_6  and  C_11 
REMARK    4  A    between atoms: N_7  and  C_15 
REMARK       I    between atoms: N_7  and  C_24 
REMARK    5  A    between atoms: P_8  and  C_23 
REMARK    6  A    between atoms: C_11  and  C_14 
REMARK    7  A    between atoms: C_15  and  C_18 
REMARK    8  A    between atoms: C_15  and  C_23 
REMARK    9  A    between atoms: C_21  and  C_26 
REMARK   10  A    between atoms: C_24  and  C_25 
REMARK   11  A    between atoms: C_29  and  C_32 
ROOT
HETATM    1  O   UNL     1      16.343   4.002  94.083  1.00  0.00     0.000 OA
HETATM    2  N   UNL     1      14.356   2.659  92.550  1.00  0.00     0.000 N 
HETATM    3  C   UNL     1      14.503   4.120  92.505  1.00  0.00     0.000 C 
HETATM    4  C   UNL     1      14.795   2.148  93.856  1.00  0.00     0.000 C 
HETATM    5  C   UNL     1      15.950   4.504  92.805  1.00  0.00     0.000 C 
HETATM    6  C   UNL     1      16.233   2.579  94.124  1.00  0.00     0.000 C 
ENDROOT
BRANCH   2   7
HETATM    7  C   UNL     1      12.974   2.269  92.276  1.00  0.00     0.000 C 
BRANCH   7   8
HETATM    8  C   UNL     1      12.034   3.423  92.345  1.00  0.00     0.000 A 
HETATM    9  C   UNL     1      11.734   4.005  93.577  1.00  0.00     0.000 A 
HETATM   10  C   UNL     1      10.852   5.084  93.642  1.00  0.00     0.000 A 
HETATM   11  C   UNL     1      10.273   5.582  92.475  1.00  0.00     0.000 A 
HETATM   12  C   UNL     1      10.573   5.002  91.244  1.00  0.00     0.000 A 
HETATM   13  C   UNL     1      11.453   3.922  91.179  1.00  0.00     0.000 A 
BRANCH  11  14
HETATM   14  C   UNL     1       9.371   6.690  92.543  1.00  0.00     0.000 C 
HETATM   15  C   UNL     1       8.613   7.622  92.600  1.00  0.00     0.000 C 
BRANCH  15  16
HETATM   16  C   UNL     1       7.712   8.730  92.667  1.00  0.00     0.000 A 
HETATM   17  C   UNL     1       7.234   9.165  93.903  1.00  0.00     0.000 A 
HETATM   18  C   UNL     1       6.357  10.248  93.968  1.00  0.00     0.000 A 
HETATM   19  C   UNL     1       5.979  10.871  92.797  1.00  0.00     0.000 A 
HETATM   20  C   UNL     1       6.437  10.459  91.563  1.00  0.00     0.000 A 
HETATM   21  C   UNL     1       7.314   9.376  91.497  1.00  0.00     0.000 A 
BRANCH  19  22
HETATM   22  C   UNL     1       5.043  12.023  92.867  1.00  0.00     0.000 C 
HETATM   23  O   UNL     1       4.860  12.582  93.946  1.00  0.00     0.000 OA
HETATM   24  N   UNL     1       4.453  12.400  91.669  1.00  0.00     0.000 N 
HETATM   25  HN  UNL     1       4.671  11.906  90.812  1.00  0.00     0.000 HD
BRANCH  24  26
HETATM   26  C   UNL     1       3.542  13.513  91.570  1.00  0.00     0.000 C 
BRANCH  26  27
HETATM   27  C   UNL     1       3.491  14.114  90.160  1.00  0.00     0.000 C 
HETATM   28  C   UNL     1       4.863  14.562  89.666  1.00  0.00     0.000 C 
BRANCH  27  29
HETATM   29  O   UNL     1       2.963  13.151  89.249  1.00  0.00     0.000 OA
HETATM   30  H   UNL     1       3.419  12.306  89.400  1.00  0.00     0.000 HD
ENDBRANCH  27  29
ENDBRANCH  26  27
BRANCH  26  31
HETATM   31  C   UNL     1       2.166  13.030  92.017  1.00  0.00     0.000 C 
HETATM   32  O   UNL     1       1.656  11.989  91.606  1.00  0.00     0.000 OA
BRANCH  31  33
HETATM   33  P   UNL     1       1.565  13.907  92.887  1.00  0.00     0.000 P 
HETATM   34  H   UNL     1       0.249  14.053  92.498  1.00  0.00     0.000 HD
BRANCH  33  35
HETATM   35  O   UNL     1       2.137  15.185  92.956  1.00  0.00     0.000 OA
HETATM   36  H   UNL     1       1.943  15.512  92.062  1.00  0.00     0.000 HD
ENDBRANCH  33  35
ENDBRANCH  31  33
ENDBRANCH  26  31
ENDBRANCH  24  26
ENDBRANCH  19  22
ENDBRANCH  15  16
ENDBRANCH  11  14
ENDBRANCH   7   8
ENDBRANCH   2   7
TORSDOF 11
ENDMDL
MODEL 3
REMARK VINA RESULT:      -5.7      1.840      2.381
REMARK  11 active torsions:
REMARK  status: ('A' for Active; 'I' for Inactive)
REMARK    1  A    between atoms: O_2  and  C_18 
REMARK    2  A    between atoms: O_5  and  P_8 
REMARK    3  A    between atoms: N_6  and  C_11 
REMARK    4  A    between atoms: N_7  and  C_15 
REMARK       I    between atoms: N_7  and  C_24 
REMARK    5  A    between atoms: P_8  and  C_23 
REMARK    6  A    between atoms: C_11  and  C_14 
REMARK    7  A    between atoms: C_15  and  C_18 
REMARK    8  A    between atoms: C_15  and  C_23 
REMARK    9  A    between atoms: C_21  and  C_26 
REMARK   10  A    between atoms: C_24  and  C_25 
REMARK   11  A    between atoms: C_29  and  C_32 
ROOT
HETATM    1  O   UNL     1      16.397   2.737  94.044  1.00  0.00     0.000 OA
HETATM    2  N   UNL     1      13.921   3.041  92.673  1.00  0.00     0.000 N 
HETATM    3  C   UNL     1      14.541   1.721  92.855  1.00  0.00     0.000 C 
HETATM    4  C   UNL     1      14.957   4.082  92.628  1.00  0.00     0.000 C 
HETATM    5  C   UNL     1      15.395   1.721  94.120  1.00  0.00     0.000 C 
HETATM    6  C   UNL     1      15.801   4.027  93.897  1.00  0.00     0.000 C 
ENDROOT
BRANCH   2   7
HETATM    7  C   UNL     1      13.106   3.067  91.459  1.00  0.00     0.000 C 
BRANCH   7   8
HETATM    8  C   UNL     1      11.957   4.010  91.567  1.00  0.00     0.000 A 
HETATM    9  C   UNL     1      11.506   4.418  92.823  1.00  0.00     0.000 A 
HETATM   10  C   UNL     1      10.429   5.299  92.925  1.00  0.00     0.000 A 
HETATM   11  C   UNL     1       9.806   5.773  91.772  1.00  0.00     0.000 A 
HETATM   12  C   UNL     1      10.256   5.367  90.517  1.00  0.00     0.000 A 
HETATM   13  C   UNL     1      11.332   4.486  90.414  1.00  0.00     0.000 A 
BRANCH  11  14
HETATM   14  C   UNL     1       8.703   6.679  91.876  1.00  0.00     0.000 C 
HETATM   15  C   UNL     1       7.777   7.440  91.965  1.00  0.00     0.000 C 
BRANCH  15  16
HETATM   16  C   UNL     1       6.675   8.345  92.071  1.00  0.00     0.000 A 
HETATM   17  C   UNL     1       6.646   9.289  93.097  1.00  0.00     0.000 A 
HETATM   18  C   UNL     1       5.572  10.175  93.198  1.00  0.00     0.000 A 
HETATM   19  C   UNL     1       4.554  10.097  92.271  1.00  0.00     0.000 A 
HETATM   20  C   UNL     1       4.560   9.172  91.247  1.00  0.00     0.000 A 
HETATM   21  C   UNL     1       5.633   8.287  91.145  1.00  0.00     0.000 A 
BRANCH  19  22
HETATM   22  C   UNL     1       3.410  11.038  92.380  1.00  0.00     0.000 C 
HETATM   23  O   UNL     1       2.402  10.690  92.989  1.00  0.00     0.000 OA
HETATM   24  N   UNL     1       3.587  12.281  91.788  1.00  0.00     0.000 N 
HETATM   25  HN  UNL     1       4.458  12.508  91.322  1.00  0.00     0.000 HD
BRANCH  24  26
HETATM   26  C   UNL     1       2.580  13.311  91.829  1.00  0.00     0.000 C 
BRANCH  26  27
HETATM   27  C   UNL     1       2.835  14.347  92.930  1.00  0.00     0.000 C 
HETATM   28  C   UNL     1       4.113  15.145  92.697  1.00  0.00     0.000 C 
BRANCH  27  29
HETATM   29  O   UNL     1       1.732  15.250  93.001  1.00  0.00     0.000 OA
HETATM   30  H   UNL     1       1.586  15.623  92.115  1.00  0.00     0.000 HD
ENDBRANCH  27  29
ENDBRANCH  26  27
BRANCH  26  31
HETATM   31  C   UNL     1       2.527  13.966  90.453  1.00  0.00     0.000 C 
HETATM   32  O   UNL     1       1.713  14.839  90.158  1.00  0.00     0.000 OA
BRANCH  31  33
HETATM   33  P   UNL     1       3.458  13.439  89.591  1.00  0.00     0.000 P 
HETATM   34  H   UNL     1       3.758  14.405  88.651  1.00  0.00     0.000 HD
BRANCH  33  35
HETATM   35  O   UNL     1       3.069  12.280  88.906  1.00  0.00     0.000 OA
HETATM   36  H   UNL     1       2.137  12.489  88.724  1.00  0.00     0.000 HD
ENDBRANCH  33  35
ENDBRANCH  31  33
ENDBRANCH  26  31
ENDBRANCH  24  26
ENDBRANCH  19  22
ENDBRANCH  15  16
ENDBRANCH  11  14
ENDBRANCH   7   8
ENDBRANCH   2   7
TORSDOF 11
ENDMDL
MODEL 4
REMARK VINA RESULT:      -4.8      3.246     12.255
REMARK  11 active torsions:
REMARK  status: ('A' for Active; 'I' for Inactive)
REMARK    1  A    between atoms: O_2  and  C_18 
REMARK    2  A    between atoms: O_5  and  P_8 
REMARK    3  A    between atoms: N_6  and  C_11 
REMARK    4  A    between atoms: N_7  and  C_15 
REMARK       I    between atoms: N_7  and  C_24 
REMARK    5  A    between atoms: P_8  and  C_23 
REMARK    6  A    between atoms: C_11  and  C_14 
REMARK    7  A    between atoms: C_15  and  C_18 
REMARK    8  A    between atoms: C_15  and  C_23 
REMARK    9  A    between atoms: C_21  and  C_26 
REMARK   10  A    between atoms: C_24  and  C_25 
REMARK   11  A    between atoms: C_29  and  C_32 
ROOT
HETATM    1  O   UNL     1       5.354  15.620  90.619  1.00  0.00     0.000 OA
HETATM    2  N   UNL     1       3.421  13.624  90.004  1.00  0.00     0.000 N 
HETATM    3  C   UNL     1       3.946  13.790  91.366  1.00  0.00     0.000 C 
HETATM    4  C   UNL     1       4.427  14.049  89.021  1.00  0.00     0.000 C 
HETATM    5  C   UNL     1       4.371  15.240  91.583  1.00  0.00     0.000 C 
HETATM    6  C   UNL     1       4.841  15.491  89.293  1.00  0.00     0.000 C 
ENDROOT
BRANCH   2   7
HETATM    7  C   UNL     1       3.017  12.239  89.769  1.00  0.00     0.000 C 
BRANCH   7   8
HETATM    8  C   UNL     1       4.144  11.280  89.952  1.00  0.00     0.000 A 
HETATM    9  C   UNL     1       3.942  10.093  90.656  1.00  0.00     0.000 A 
HETATM   10  C   UNL     1       4.996   9.197  90.830  1.00  0.00     0.000 A 
HETATM   11  C   UNL     1       6.252   9.487  90.297  1.00  0.00     0.000 A 
HETATM   12  C   UNL     1       6.455  10.673  89.594  1.00  0.00     0.000 A 
HETATM   13  C   UNL     1       5.401  11.570  89.421  1.00  0.00     0.000 A 
BRANCH  11  14
HETATM   14  C   UNL     1       7.333   8.567  90.474  1.00  0.00     0.000 C 
HETATM   15  C   UNL     1       8.241   7.793  90.622  1.00  0.00     0.000 C 
BRANCH  15  16
HETATM   16  C   UNL     1       9.321   6.873  90.799  1.00  0.00     0.000 A 
HETATM   17  C   UNL     1       9.925   6.286  89.687  1.00  0.00     0.000 A 
HETATM   18  C   UNL     1      10.981   5.391  89.860  1.00  0.00     0.000 A 
HETATM   19  C   UNL     1      11.408   5.103  91.139  1.00  0.00     0.000 A 
HETATM   20  C   UNL     1      10.828   5.670  92.254  1.00  0.00     0.000 A 
HETATM   21  C   UNL     1       9.772   6.565  92.083  1.00  0.00     0.000 A 
BRANCH  19  22
HETATM   22  C   UNL     1      12.531   4.147  91.323  1.00  0.00     0.000 C 
HETATM   23  O   UNL     1      12.682   3.236  90.512  1.00  0.00     0.000 OA
HETATM   24  N   UNL     1      13.358   4.383  92.412  1.00  0.00     0.000 N 
HETATM   25  HN  UNL     1      13.187   5.171  93.025  1.00  0.00     0.000 HD
BRANCH  24  26
HETATM   26  C   UNL     1      14.502   3.559  92.710  1.00  0.00     0.000 C 
BRANCH  26  27
HETATM   27  C   UNL     1      15.542   4.279  93.579  1.00  0.00     0.000 C 
HETATM   28  C   UNL     1      16.693   3.367  93.987  1.00  0.00     0.000 C 
BRANCH  27  29
HETATM   29  O   UNL     1      16.067   5.398  92.865  1.00  0.00     0.000 OA
HETATM   30  H   UNL     1      15.480   6.158  93.014  1.00  0.00     0.000 HD
ENDBRANCH  27  29
ENDBRANCH  26  27
BRANCH  26  31
HETATM   31  C   UNL     1      13.998   2.289  93.386  1.00  0.00     0.000 C 
HETATM   32  O   UNL     1      14.543   1.195  93.247  1.00  0.00     0.000 OA
BRANCH  31  33
HETATM   33  P   UNL     1      12.860   2.509  94.124  1.00  0.00     0.000 P 
HETATM   34  H   UNL     1      12.859   1.617  95.177  1.00  0.00     0.000 HD
BRANCH  33  35
HETATM   35  O   UNL     1      11.649   2.362  93.434  1.00  0.00     0.000 OA
HETATM   36  H   UNL     1      11.784   1.488  93.029  1.00  0.00     0.000 HD
ENDBRANCH  33  35
ENDBRANCH  31  33
ENDBRANCH  26  31
ENDBRANCH  24  26
ENDBRANCH  19  22
ENDBRANCH  15  16
ENDBRANCH  11  14
ENDBRANCH   7   8
ENDBRANCH   2   7
TORSDOF 11
ENDMDL
MODEL 5
REMARK VINA RESULT:      -4.6      3.508     12.392
REMARK  11 active torsions:
REMARK  status: ('A' for Active; 'I' for Inactive)
REMARK    1  A    between atoms: O_2  and  C_18 
REMARK    2  A    between atoms: O_5  and  P_8 
REMARK    3  A    between atoms: N_6  and  C_11 
REMARK    4  A    between atoms: N_7  and  C_15 
REMARK       I    between atoms: N_7  and  C_24 
REMARK    5  A    between atoms: P_8  and  C_23 
REMARK    6  A    between atoms: C_11  and  C_14 
REMARK    7  A    between atoms: C_15  and  C_18 
REMARK    8  A    between atoms: C_15  and  C_23 
REMARK    9  A    between atoms: C_21  and  C_26 
REMARK   10  A    between atoms: C_24  and  C_25 
REMARK   11  A    between atoms: C_29  and  C_32 
ROOT
HETATM    1  O   UNL     1       5.371  14.716  88.819  1.00  0.00     0.000 OA
HETATM    2  N   UNL     1       3.448  13.227  90.297  1.00  0.00     0.000 N 
HETATM    3  C   UNL     1       4.177  14.351  90.900  1.00  0.00     0.000 C 
HETATM    4  C   UNL     1       4.265  12.600  89.249  1.00  0.00     0.000 C 
HETATM    5  C   UNL     1       4.571  15.352  89.817  1.00  0.00     0.000 C 
HETATM    6  C   UNL     1       4.657  13.641  88.206  1.00  0.00     0.000 C 
ENDROOT
BRANCH   2   7
HETATM    7  C   UNL     1       3.070  12.249  91.316  1.00  0.00     0.000 C 
BRANCH   7   8
HETATM    8  C   UNL     1       4.134  11.231  91.550  1.00  0.00     0.000 A 
HETATM    9  C   UNL     1       4.188  10.085  90.755  1.00  0.00     0.000 A 
HETATM   10  C   UNL     1       5.182   9.132  90.974  1.00  0.00     0.000 A 
HETATM   11  C   UNL     1       6.122   9.326  91.985  1.00  0.00     0.000 A 
HETATM   12  C   UNL     1       6.070  10.470  92.779  1.00  0.00     0.000 A 
HETATM   13  C   UNL     1       5.076  11.424  92.561  1.00  0.00     0.000 A 
BRANCH  11  14
HETATM   14  C   UNL     1       7.143   8.348  92.208  1.00  0.00     0.000 C 
HETATM   15  C   UNL     1       8.001   7.527  92.396  1.00  0.00     0.000 C 
BRANCH  15  16
HETATM   16  C   UNL     1       9.021   6.550  92.620  1.00  0.00     0.000 A 
HETATM   17  C   UNL     1       9.461   5.749  91.566  1.00  0.00     0.000 A 
HETATM   18  C   UNL     1      10.458   4.798  91.784  1.00  0.00     0.000 A 
HETATM   19  C   UNL     1      10.992   4.670  93.048  1.00  0.00     0.000 A 
HETATM   20  C   UNL     1      10.575   5.450  94.107  1.00  0.00     0.000 A 
HETATM   21  C   UNL     1       9.578   6.401  93.890  1.00  0.00     0.000 A 
BRANCH  19  22
HETATM   22  C   UNL     1      12.053   3.655  93.280  1.00  0.00     0.000 C 
HETATM   23  O   UNL     1      11.742   2.554  93.728  1.00  0.00     0.000 OA
HETATM   24  N   UNL     1      13.343   4.036  92.940  1.00  0.00     0.000 N 
HETATM   25  HN  UNL     1      13.521   4.954  92.551  1.00  0.00     0.000 HD
BRANCH  24  26
HETATM   26  C   UNL     1      14.475   3.155  93.083  1.00  0.00     0.000 C 
BRANCH  26  27
HETATM   27  C   UNL     1      14.833   2.432  91.778  1.00  0.00     0.000 C 
HETATM   28  C   UNL     1      14.840   3.368  90.575  1.00  0.00     0.000 C 
BRANCH  27  29
HETATM   29  O   UNL     1      16.121   1.831  91.905  1.00  0.00     0.000 OA
HETATM   30  H   UNL     1      16.349   1.418  91.055  1.00  0.00     0.000 HD
ENDBRANCH  27  29
ENDBRANCH  26  27
BRANCH  26  31
HETATM   31  C   UNL     1      15.647   3.984  93.598  1.00  0.00     0.000 C 
HETATM   32  O   UNL     1      15.690   5.209  93.511  1.00  0.00     0.000 OA
BRANCH  31  33
HETATM   33  P   UNL     1      16.645   3.200  94.124  1.00  0.00     0.000 P 
HETATM   34  H   UNL     1      16.835   3.581  95.437  1.00  0.00     0.000 HD
BRANCH  33  35
HETATM   35  O   UNL     1      17.885   3.271  93.472  1.00  0.00     0.000 OA
HETATM   36  H   UNL     1      17.811   4.145  93.053  1.00  0.00     0.000 HD
ENDBRANCH  33  35
ENDBRANCH  31  33
ENDBRANCH  26  31
ENDBRANCH  24  26
ENDBRANCH  19  22
ENDBRANCH  15  16
ENDBRANCH  11  14
ENDBRANCH   7   8
ENDBRANCH   2   7
TORSDOF 11
ENDMDL
MODEL 6
REMARK VINA RESULT:      -4.5      3.558     12.325
REMARK  11 active torsions:
REMARK  status: ('A' for Active; 'I' for Inactive)
REMARK    1  A    between atoms: O_2  and  C_18 
REMARK    2  A    between atoms: O_5  and  P_8 
REMARK    3  A    between atoms: N_6  and  C_11 
REMARK    4  A    between atoms: N_7  and  C_15 
REMARK       I    between atoms: N_7  and  C_24 
REMARK    5  A    between atoms: P_8  and  C_23 
REMARK    6  A    between atoms: C_11  and  C_14 
REMARK    7  A    between atoms: C_15  and  C_18 
REMARK    8  A    between atoms: C_15  and  C_23 
REMARK    9  A    between atoms: C_21  and  C_26 
REMARK   10  A    between atoms: C_24  and  C_25 
REMARK   11  A    between atoms: C_29  and  C_32 
ROOT
HETATM    1  O   UNL     1       4.096  14.653  89.803  1.00  0.00     0.000 OA
HETATM    2  N   UNL     1       3.109  13.883  92.359  1.00  0.00     0.000 N 
HETATM    3  C   UNL     1       4.461  14.434  92.192  1.00  0.00     0.000 C 
HETATM    4  C   UNL     1       2.694  13.187  91.133  1.00  0.00     0.000 C 
HETATM    5  C   UNL     1       4.496  15.360  90.979  1.00  0.00     0.000 C 
HETATM    6  C   UNL     1       2.770  14.141  89.945  1.00  0.00     0.000 C 
ENDROOT
BRANCH   2   7
HETATM    7  C   UNL     1       3.055  12.984  93.510  1.00  0.00     0.000 C 
BRANCH   7   8
HETATM    8  C   UNL     1       4.018  11.852  93.393  1.00  0.00     0.000 A 
HETATM    9  C   UNL     1       3.730  10.777  92.552  1.00  0.00     0.000 A 
HETATM   10  C   UNL     1       4.630   9.717  92.443  1.00  0.00     0.000 A 
HETATM   11  C   UNL     1       5.818   9.734  93.174  1.00  0.00     0.000 A 
HETATM   12  C   UNL     1       6.106  10.807  94.014  1.00  0.00     0.000 A 
HETATM   13  C   UNL     1       5.206  11.867  94.124  1.00  0.00     0.000 A 
BRANCH  11  14
HETATM   14  C   UNL     1       6.741   8.647  93.061  1.00  0.00     0.000 C 
HETATM   15  C   UNL     1       7.518   7.734  92.965  1.00  0.00     0.000 C 
BRANCH  15  16
HETATM   16  C   UNL     1       8.441   6.648  92.851  1.00  0.00     0.000 A 
HETATM   17  C   UNL     1       9.461   6.500  93.791  1.00  0.00     0.000 A 
HETATM   18  C   UNL     1      10.360   5.439  93.681  1.00  0.00     0.000 A 
HETATM   19  C   UNL     1      10.219   4.551  92.635  1.00  0.00     0.000 A 
HETATM   20  C   UNL     1       9.220   4.676  91.693  1.00  0.00     0.000 A 
HETATM   21  C   UNL     1       8.320   5.737  91.802  1.00  0.00     0.000 A 
BRANCH  19  22
HETATM   22  C   UNL     1      11.179   3.423  92.518  1.00  0.00     0.000 C 
HETATM   23  O   UNL     1      10.750   2.272  92.489  1.00  0.00     0.000 OA
HETATM   24  N   UNL     1      12.519   3.772  92.423  1.00  0.00     0.000 N 
HETATM   25  HN  UNL     1      12.797   4.746  92.428  1.00  0.00     0.000 HD
BRANCH  24  26
HETATM   26  C   UNL     1      13.567   2.793  92.279  1.00  0.00     0.000 C 
BRANCH  26  27
HETATM   27  C   UNL     1      14.425   3.021  91.029  1.00  0.00     0.000 C 
HETATM   28  C   UNL     1      14.261   4.425  90.456  1.00  0.00     0.000 C 
BRANCH  27  29
HETATM   29  O   UNL     1      15.800   2.808  91.348  1.00  0.00     0.000 OA
HETATM   30  H   UNL     1      16.225   3.676  91.458  1.00  0.00     0.000 HD
ENDBRANCH  27  29
ENDBRANCH  26  27
BRANCH  26  31
HETATM   31  C   UNL     1      14.414   2.828  93.547  1.00  0.00     0.000 C 
HETATM   32  O   UNL     1      14.838   1.813  94.098  1.00  0.00     0.000 OA
BRANCH  31  33
HETATM   33  P   UNL     1      14.605   4.108  94.008  1.00  0.00     0.000 P 
HETATM   34  H   UNL     1      13.629   4.909  93.451  1.00  0.00     0.000 HD
BRANCH  33  35
HETATM   35  O   UNL     1      15.850   4.682  93.715  1.00  0.00     0.000 OA
HETATM   36  H   UNL     1      16.278   4.624  94.586  1.00  0.00     0.000 HD
ENDBRANCH  33  35
ENDBRANCH  31  33
ENDBRANCH  26  31
ENDBRANCH  24  26
ENDBRANCH  19  22
ENDBRANCH  15  16
ENDBRANCH  11  14
ENDBRANCH   7   8
ENDBRANCH   2   7
TORSDOF 11
ENDMDL
MODEL 7
REMARK VINA RESULT:      -4.4      3.634     12.409
REMARK  11 active torsions:
REMARK  status: ('A' for Active; 'I' for Inactive)
REMARK    1  A    between atoms: O_2  and  C_18 
REMARK    2  A    between atoms: O_5  and  P_8 
REMARK    3  A    between atoms: N_6  and  C_11 
REMARK    4  A    between atoms: N_7  and  C_15 
REMARK       I    between atoms: N_7  and  C_24 
REMARK    5  A    between atoms: P_8  and  C_23 
REMARK    6  A    between atoms: C_11  and  C_14 
REMARK    7  A    between atoms: C_15  and  C_18 
REMARK    8  A    between atoms: C_15  and  C_23 
REMARK    9  A    between atoms: C_21  and  C_26 
REMARK   10  A    between atoms: C_24  and  C_25 
REMARK   11  A    between atoms: C_29  and  C_32 
ROOT
HETATM    1  O   UNL     1       2.984  14.586  93.265  1.00  0.00     0.000 OA
HETATM    2  N   UNL     1       3.190  13.716  90.563  1.00  0.00     0.000 N 
HETATM    3  C   UNL     1       2.074  13.297  91.421  1.00  0.00     0.000 C 
HETATM    4  C   UNL     1       4.384  13.975  91.380  1.00  0.00     0.000 C 
HETATM    5  C   UNL     1       1.810  14.363  92.482  1.00  0.00     0.000 C 
HETATM    6  C   UNL     1       4.066  15.023  92.442  1.00  0.00     0.000 C 
ENDROOT
BRANCH   2   7
HETATM    7  C   UNL     1       3.468  12.704  89.545  1.00  0.00     0.000 C 
BRANCH   7   8
HETATM    8  C   UNL     1       4.448  11.683  90.011  1.00  0.00     0.000 A 
HETATM    9  C   UNL     1       5.814  11.884  89.807  1.00  0.00     0.000 A 
HETATM   10  C   UNL     1       6.732  10.928  90.241  1.00  0.00     0.000 A 
HETATM   11  C   UNL     1       6.284   9.772  90.881  1.00  0.00     0.000 A 
HETATM   12  C   UNL     1       4.920   9.571  91.085  1.00  0.00     0.000 A 
HETATM   13  C   UNL     1       4.002  10.526  90.650  1.00  0.00     0.000 A 
BRANCH  11  14
HETATM   14  C   UNL     1       7.226   8.792  91.328  1.00  0.00     0.000 C 
HETATM   15  C   UNL     1       8.017   7.969  91.703  1.00  0.00     0.000 C 
BRANCH  15  16
HETATM   16  C   UNL     1       8.959   6.990  92.149  1.00  0.00     0.000 A 
HETATM   17  C   UNL     1       9.696   6.258  91.218  1.00  0.00     0.000 A 
HETATM   18  C   UNL     1      10.617   5.305  91.653  1.00  0.00     0.000 A 
HETATM   19  C   UNL     1      10.780   5.105  93.008  1.00  0.00     0.000 A 
HETATM   20  C   UNL     1      10.063   5.815  93.948  1.00  0.00     0.000 A 
HETATM   21  C   UNL     1       9.142   6.769  93.514  1.00  0.00     0.000 A 
BRANCH  19  22
HETATM   22  C   UNL     1      11.759   4.088  93.471  1.00  0.00     0.000 C 
HETATM   23  O   UNL     1      11.361   3.122  94.117  1.00  0.00     0.000 OA
HETATM   24  N   UNL     1      13.080   4.306  93.106  1.00  0.00     0.000 N 
HETATM   25  HN  UNL     1      13.332   5.115  92.550  1.00  0.00     0.000 HD
BRANCH  24  26
HETATM   26  C   UNL     1      14.142   3.398  93.459  1.00  0.00     0.000 C 
BRANCH  26  27
HETATM   27  C   UNL     1      14.296   2.247  92.457  1.00  0.00     0.000 C 
HETATM   28  C   UNL     1      12.962   1.593  92.110  1.00  0.00     0.000 C 
BRANCH  27  29
HETATM   29  O   UNL     1      14.898   2.734  91.258  1.00  0.00     0.000 OA
HETATM   30  H   UNL     1      15.285   1.979  90.783  1.00  0.00     0.000 HD
ENDBRANCH  27  29
ENDBRANCH  26  27
BRANCH  26  31
HETATM   31  C   UNL     1      15.429   4.208  93.573  1.00  0.00     0.000 C 
HETATM   32  O   UNL     1      15.527   5.370  93.180  1.00  0.00     0.000 OA
BRANCH  31  33
HETATM   33  P   UNL     1      16.455   3.479  94.124  1.00  0.00     0.000 P 
HETATM   34  H   UNL     1      17.066   4.263  95.080  1.00  0.00     0.000 HD
BRANCH  33  35
HETATM   35  O   UNL     1      17.443   3.043  93.229  1.00  0.00     0.000 OA
HETATM   36  H   UNL     1      17.646   2.170  93.605  1.00  0.00     0.000 HD
ENDBRANCH  33  35
ENDBRANCH  31  33
ENDBRANCH  26  31
ENDBRANCH  24  26
ENDBRANCH  19  22
ENDBRANCH  15  16
ENDBRANCH  11  14
ENDBRANCH   7   8
ENDBRANCH   2   7
TORSDOF 11
ENDMDL
