MODEL 1
REMARK VINA RESULT:      -7.3      0.000      0.000
REMARK  9 active torsions:
REMARK  status: ('A' for Active; 'I' for Inactive)
REMARK    1  A    between atoms: O_2  and  C_17 
REMARK    2  A    between atoms: N_5  and  C_10 
REMARK    3  A    between atoms: N_6  and  C_14 
REMARK       I    between atoms: N_6  and  C_23 
REMARK       I    between atoms: N_7  and  C_22 
REMARK    4  A    between atoms: C_10  and  C_13 
REMARK    5  A    between atoms: C_14  and  C_17 
REMARK    6  A    between atoms: C_14  and  C_22 
REMARK    7  A    between atoms: C_20  and  C_25 
REMARK    8  A    between atoms: C_23  and  C_24 
REMARK    9  A    between atoms: C_28  and  C_31 
ROOT
HETATM    1  O   UNL     1      16.598   3.112  93.682  1.00  0.00    -0.388 OA
HETATM    2  N   UNL     1      13.882   2.754  92.908  1.00  0.00     0.096 N 
HETATM    3  C   UNL     1      14.781   1.608  93.107  1.00  0.00     0.299 C 
HETATM    4  C   UNL     1      14.653   3.931  92.486  1.00  0.00     0.299 C 
HETATM    5  C   UNL     1      15.861   1.970  94.124  1.00  0.00     0.198 C 
HETATM    6  C   UNL     1      15.735   4.238  93.516  1.00  0.00     0.198 C 
ENDROOT
BRANCH   2   7
HETATM    7  C   UNL     1      12.845   2.433  91.929  1.00  0.00     0.311 C 
BRANCH   7   8
HETATM    8  C   UNL     1      11.973   3.603  91.622  1.00  0.00    -0.030 A 
HETATM    9  C   UNL     1      11.360   4.306  92.660  1.00  0.00     0.010 A 
HETATM   10  C   UNL     1      10.542   5.399  92.374  1.00  0.00     0.021 A 
HETATM   11  C   UNL     1      10.339   5.789  91.050  1.00  0.00     0.018 A 
HETATM   12  C   UNL     1      10.951   5.088  90.013  1.00  0.00     0.021 A 
HETATM   13  C   UNL     1      11.768   3.994  90.299  1.00  0.00     0.010 A 
BRANCH  11  14
HETATM   14  C   UNL     1       9.502   6.912  90.757  1.00  0.00    -0.061 C 
HETATM   15  C   UNL     1       8.798   7.855  90.512  1.00  0.00    -0.061 C 
BRANCH  15  16
HETATM   16  C   UNL     1       7.962   8.977  90.219  1.00  0.00     0.018 A 
HETATM   17  C   UNL     1       6.694   9.069  90.793  1.00  0.00     0.022 A 
HETATM   18  C   UNL     1       5.879  10.166  90.510  1.00  0.00     0.018 A 
HETATM   19  C   UNL     1       6.351  11.145  89.661  1.00  0.00     0.032 A 
HETATM   20  C   UNL     1       7.600  11.077  89.081  1.00  0.00     0.018 A 
HETATM   21  C   UNL     1       8.416   9.981  89.363  1.00  0.00     0.022 A 
BRANCH  19  22
HETATM   22  C   UNL     1       5.482  12.311  89.358  1.00  0.00     0.252 C 
HETATM   23  O   UNL     1       5.556  12.844  88.253  1.00  0.00    -0.268 OA
HETATM   24  N   UNL     1       4.614  12.702  90.368  1.00  0.00    -0.342 N 
HETATM   25  H   UNL     1       4.591  12.198  91.247  1.00  0.00     0.163 HD
BRANCH  24  26
HETATM   26  C   UNL     1       3.693  13.799  90.218  1.00  0.00     0.199 C 
BRANCH  26  27
HETATM   27  C   UNL     1       2.514  13.723  91.197  1.00  0.00     0.145 C 
HETATM   28  C   UNL     1       2.168  12.290  91.584  1.00  0.00     0.042 C 
BRANCH  27  29
HETATM   29  O   UNL     1       2.828  14.460  92.379  1.00  0.00    -0.393 OA
HETATM   30  H   UNL     1       3.176  15.327  92.114  1.00  0.00     0.210 HD
ENDBRANCH  27  29
ENDBRANCH  26  27
BRANCH  26  31
HETATM   31  C   UNL     1       4.478  15.095  90.395  1.00  0.00     0.220 C 
HETATM   32  O   UNL     1       4.682  15.609  91.493  1.00  0.00    -0.278 OA
HETATM   33  N   UNL     1       4.886  15.623  89.194  1.00  0.00    -0.271 NA
HETATM   34  H   UNL     1       4.659  15.274  88.270  1.00  0.00     0.127 HD
HETATM   35  H   UNL     1       4.404  16.765  88.536  1.00  0.00     0.127 HD
ENDBRANCH  26  31
ENDBRANCH  24  26
ENDBRANCH  19  22
ENDBRANCH  15  16
ENDBRANCH  11  14
ENDBRANCH   7   8
ENDBRANCH   2   7
TORSDOF 9
ENDMDL
