MODEL 1
REMARK VINA RESULT:      -6.9      0.000      0.000
REMARK  10 active torsions:
REMARK  status: ('A' for Active; 'I' for Inactive)
REMARK    1  A    between atoms: O_2  and  C_18 
REMARK    2  A    between atoms: O_5  and  N_8 
REMARK    3  A    between atoms: N_6  and  C_11 
REMARK    4  A    between atoms: N_7  and  C_15 
REMARK       I    between atoms: N_7  and  C_24 
REMARK       I    between atoms: N_8  and  C_23 
REMARK    5  A    between atoms: C_11  and  C_14 
REMARK    6  A    between atoms: C_15  and  C_18 
REMARK    7  A    between atoms: C_15  and  C_23 
REMARK    8  A    between atoms: C_21  and  C_26 
REMARK    9  A    between atoms: C_24  and  C_25 
REMARK   10  A    between atoms: C_29  and  C_32 
ROOT
HETATM    1  O   UNK     0      17.107   4.218  93.934  0.00  0.00    -0.388 OA
HETATM    2  N   UNK     0      14.746   2.761  93.293  0.00  0.00     0.096 N 
HETATM    3  C   UNK     0      16.082   2.170  93.129  0.00  0.00     0.299 C 
HETATM    4  C   UNK     0      14.818   4.219  93.129  0.00  0.00     0.299 C 
HETATM    5  C   UNK     0      17.053   2.802  94.123  0.00  0.00     0.198 C 
HETATM    6  C   UNK     0      15.818   4.804  94.122  0.00  0.00     0.198 C 
ENDROOT
BRANCH   2   7
HETATM    7  C   UNK     0      13.801   2.178  92.343  0.00  0.00     0.311 C 
BRANCH   7   8
HETATM    8  C   UNK     0      12.690   3.111  92.001  0.00  0.00    -0.030 A 
HETATM    9  C   UNK     0      12.672   3.747  90.759  0.00  0.00     0.010 A 
HETATM   10  C   UNK     0      11.635   4.622  90.438  0.00  0.00     0.021 A 
HETATM   11  C   UNK     0      10.614   4.859  91.359  0.00  0.00     0.018 A 
HETATM   12  C   UNK     0      10.631   4.224  92.599  0.00  0.00     0.021 A 
HETATM   13  C   UNK     0      11.669   3.350  92.921  0.00  0.00     0.010 A 
BRANCH  11  14
HETATM   14  C   UNK     0       9.549   5.755  91.029  0.00  0.00    -0.061 C 
HETATM   15  C   UNK     0       8.653   6.508  90.753  0.00  0.00    -0.061 C 
BRANCH  15  16
HETATM   16  C   UNK     0       7.588   7.402  90.425  0.00  0.00     0.018 A 
HETATM   17  C   UNK     0       7.864   8.742  90.150  0.00  0.00     0.022 A 
HETATM   18  C   UNK     0       6.824   9.615  89.827  0.00  0.00     0.018 A 
HETATM   19  C   UNK     0       5.534   9.129  89.786  0.00  0.00     0.032 A 
HETATM   20  C   UNK     0       5.236   7.810  90.054  0.00  0.00     0.018 A 
HETATM   21  C   UNK     0       6.274   6.937  90.377  0.00  0.00     0.022 A 
BRANCH  19  22
HETATM   22  C   UNK     0       4.427  10.060  89.444  0.00  0.00     0.252 C 
HETATM   23  O   UNK     0       3.575   9.706  88.633  0.00  0.00    -0.268 OA
HETATM   24  N   UNK     0       4.432  11.279  90.107  0.00  0.00    -0.341 N 
HETATM   25  H   UNK     0       5.155  11.492  90.784  0.00  0.00     0.163 HD
BRANCH  24  26
HETATM   26  C   UNK     0       3.413  12.277  89.901  0.00  0.00     0.207 C 
BRANCH  26  27
HETATM   27  C   UNK     0       2.960  12.940  91.208  0.00  0.00     0.146 C 
HETATM   28  C   UNK     0       2.143  11.999  92.087  0.00  0.00     0.042 C 
BRANCH  27  29
HETATM   29  O   UNK     0       4.102  13.383  91.941  0.00  0.00    -0.393 OA
HETATM   30  H   UNK     0       4.629  12.603  92.184  0.00  0.00     0.210 HD
ENDBRANCH  27  29
ENDBRANCH  26  27
BRANCH  26  31
HETATM   31  C   UNK     0       3.961  13.307  88.919  0.00  0.00     0.266 C 
HETATM   32  O   UNK     0       4.024  14.508  89.173  0.00  0.00    -0.269 OA
HETATM   33  N   UNK     0       4.330  12.739  87.724  0.00  0.00    -0.236 N 
HETATM   34  H   UNK     0       4.209  11.771  87.449  0.00  0.00     0.197 HD
BRANCH  33  35
HETATM   35  O   UNK     0       4.810  13.625  86.749  0.00  0.00    -0.287 OA
HETATM   36  H   UNK     0       5.757  13.630  86.969  0.00  0.00     0.244 HD
ENDBRANCH  33  35
ENDBRANCH  26  31
ENDBRANCH  24  26
ENDBRANCH  19  22
ENDBRANCH  15  16
ENDBRANCH  11  14
ENDBRANCH   7   8
ENDBRANCH   2   7
TORSDOF 10
ENDMDL
MODEL 2
REMARK VINA RESULT:      -6.3      1.944      2.616
REMARK  10 active torsions:
REMARK  status: ('A' for Active; 'I' for Inactive)
REMARK    1  A    between atoms: O_2  and  C_18 
REMARK    2  A    between atoms: O_5  and  N_8 
REMARK    3  A    between atoms: N_6  and  C_11 
REMARK    4  A    between atoms: N_7  and  C_15 
REMARK       I    between atoms: N_7  and  C_24 
REMARK       I    between atoms: N_8  and  C_23 
REMARK    5  A    between atoms: C_11  and  C_14 
REMARK    6  A    between atoms: C_15  and  C_18 
REMARK    7  A    between atoms: C_15  and  C_23 
REMARK    8  A    between atoms: C_21  and  C_26 
REMARK    9  A    between atoms: C_24  and  C_25 
REMARK   10  A    between atoms: C_29  and  C_32 
ROOT
HETATM    1  O   UNK     0      16.630   4.035  94.100  0.00  0.00    -0.388 OA
HETATM    2  N   UNK     0      14.574   2.638  92.713  0.00  0.00     0.096 N 
HETATM    3  C   UNK     0      14.658   4.104  92.688  0.00  0.00     0.299 C 
HETATM    4  C   UNK     0      15.142   2.123  93.966  0.00  0.00     0.299 C 
HETATM    5  C   UNK     0      16.109   4.543  92.871  0.00  0.00     0.198 C 
HETATM    6  C   UNK     0      16.581   2.608  94.120  0.00  0.00     0.198 C 
ENDROOT
BRANCH   2   7
HETATM    7  C   UNK     0      13.190   2.195  92.550  0.00  0.00     0.311 C 
BRANCH   7   8
HETATM    8  C   UNK     0      12.224   3.330  92.577  0.00  0.00    -0.030 A 
HETATM    9  C   UNK     0      11.948   3.982  93.780  0.00  0.00     0.010 A 
HETATM   10  C   UNK     0      11.043   5.042  93.806  0.00  0.00     0.021 A 
HETATM   11  C   UNK     0      10.416   5.452  92.630  0.00  0.00     0.018 A 
HETATM   12  C   UNK     0      10.691   4.803  91.428  0.00  0.00     0.021 A 
HETATM   13  C   UNK     0      11.596   3.742  91.401  0.00  0.00     0.010 A 
BRANCH  11  14
HETATM   14  C   UNK     0       9.489   6.542  92.657  0.00  0.00    -0.061 C 
HETATM   15  C   UNK     0       8.710   7.457  92.679  0.00  0.00    -0.061 C 
BRANCH  15  16
HETATM   16  C   UNK     0       7.785   8.546  92.705  0.00  0.00     0.018 A 
HETATM   17  C   UNK     0       7.442   9.198  91.520  0.00  0.00     0.022 A 
HETATM   18  C   UNK     0       6.537  10.259  91.545  0.00  0.00     0.018 A 
HETATM   19  C   UNK     0       5.997  10.646  92.754  0.00  0.00     0.032 A 
HETATM   20  C   UNK     0       6.320  10.020  93.939  0.00  0.00     0.018 A 
HETATM   21  C   UNK     0       7.225   8.958  93.914  0.00  0.00     0.022 A 
BRANCH  19  22
HETATM   22  C   UNK     0       5.035  11.778  92.780  0.00  0.00     0.252 C 
HETATM   23  O   UNK     0       4.711  12.265  93.861  0.00  0.00    -0.268 OA
HETATM   24  N   UNK     0       4.585  12.223  91.545  0.00  0.00    -0.341 N 
HETATM   25  H   UNK     0       4.916  11.788  90.692  0.00  0.00     0.163 HD
BRANCH  24  26
HETATM   26  C   UNK     0       3.670  13.327  91.404  0.00  0.00     0.207 C 
BRANCH  26  27
HETATM   27  C   UNK     0       4.236  14.642  91.955  0.00  0.00     0.146 C 
HETATM   28  C   UNK     0       4.937  15.470  90.884  0.00  0.00     0.042 C 
BRANCH  27  29
HETATM   29  O   UNK     0       3.180  15.416  92.523  0.00  0.00    -0.393 OA
HETATM   30  H   UNK     0       2.543  15.624  91.819  0.00  0.00     0.210 HD
ENDBRANCH  27  29
ENDBRANCH  26  27
BRANCH  26  31
HETATM   31  C   UNK     0       3.315  13.453  89.926  0.00  0.00     0.266 C 
HETATM   32  O   UNK     0       2.484  14.254  89.503  0.00  0.00    -0.269 OA
HETATM   33  N   UNK     0       3.999  12.549  89.150  0.00  0.00    -0.236 N 
HETATM   34  H   UNK     0       4.621  11.818  89.475  0.00  0.00     0.197 HD
BRANCH  33  35
HETATM   35  O   UNK     0       3.701  12.573  87.780  0.00  0.00    -0.287 OA
HETATM   36  H   UNK     0       4.571  12.348  87.408  0.00  0.00     0.244 HD
ENDBRANCH  33  35
ENDBRANCH  26  31
ENDBRANCH  24  26
ENDBRANCH  19  22
ENDBRANCH  15  16
ENDBRANCH  11  14
ENDBRANCH   7   8
ENDBRANCH   2   7
TORSDOF 10
ENDMDL
MODEL 3
REMARK VINA RESULT:      -6.3      1.712      2.154
REMARK  10 active torsions:
REMARK  status: ('A' for Active; 'I' for Inactive)
REMARK    1  A    between atoms: O_2  and  C_18 
REMARK    2  A    between atoms: O_5  and  N_8 
REMARK    3  A    between atoms: N_6  and  C_11 
REMARK    4  A    between atoms: N_7  and  C_15 
REMARK       I    between atoms: N_7  and  C_24 
REMARK       I    between atoms: N_8  and  C_23 
REMARK    5  A    between atoms: C_11  and  C_14 
REMARK    6  A    between atoms: C_15  and  C_18 
REMARK    7  A    between atoms: C_15  and  C_23 
REMARK    8  A    between atoms: C_21  and  C_26 
REMARK    9  A    between atoms: C_24  and  C_25 
REMARK   10  A    between atoms: C_29  and  C_32 
ROOT
HETATM    1  O   UNK     0      16.402   2.972  93.544  0.00  0.00    -0.388 OA
HETATM    2  N   UNK     0      13.694   2.841  92.678  0.00  0.00     0.096 N 
HETATM    3  C   UNK     0      14.418   1.640  93.118  0.00  0.00     0.299 C 
HETATM    4  C   UNK     0      14.635   3.818  92.113  0.00  0.00     0.299 C 
HETATM    5  C   UNK     0      15.499   2.028  94.124  0.00  0.00     0.198 C 
HETATM    6  C   UNK     0      15.710   4.155  93.142  0.00  0.00     0.198 C 
ENDROOT
BRANCH   2   7
HETATM    7  C   UNK     0      12.660   2.494  91.704  0.00  0.00     0.311 C 
BRANCH   7   8
HETATM    8  C   UNK     0      11.553   3.492  91.671  0.00  0.00    -0.030 A 
HETATM    9  C   UNK     0      11.204   4.184  92.831  0.00  0.00     0.010 A 
HETATM   10  C   UNK     0      10.167   5.117  92.802  0.00  0.00     0.021 A 
HETATM   11  C   UNK     0       9.483   5.359  91.611  0.00  0.00     0.018 A 
HETATM   12  C   UNK     0       9.832   4.670  90.451  0.00  0.00     0.021 A 
HETATM   13  C   UNK     0      10.867   3.736  90.481  0.00  0.00     0.010 A 
BRANCH  11  14
HETATM   14  C   UNK     0       8.421   6.318  91.580  0.00  0.00    -0.061 C 
HETATM   15  C   UNK     0       7.529   7.123  91.554  0.00  0.00    -0.061 C 
BRANCH  15  16
HETATM   16  C   UNK     0       6.470   8.082  91.523  0.00  0.00     0.018 A 
HETATM   17  C   UNK     0       6.716   9.379  91.072  0.00  0.00     0.022 A 
HETATM   18  C   UNK     0       5.682  10.314  91.040  0.00  0.00     0.018 A 
HETATM   19  C   UNK     0       4.425   9.932  91.459  0.00  0.00     0.032 A 
HETATM   20  C   UNK     0       4.155   8.657  91.910  0.00  0.00     0.018 A 
HETATM   21  C   UNK     0       5.189   7.722  91.943  0.00  0.00     0.022 A 
BRANCH  19  22
HETATM   22  C   UNK     0       3.324  10.929  91.427  0.00  0.00     0.252 C 
HETATM   23  O   UNK     0       2.229  10.600  90.978  0.00  0.00    -0.268 OA
HETATM   24  N   UNK     0       3.623  12.182  91.944  0.00  0.00    -0.341 N 
HETATM   25  H   UNK     0       4.543  12.375  92.321  0.00  0.00     0.163 HD
BRANCH  24  26
HETATM   26  C   UNK     0       2.654  13.248  92.005  0.00  0.00     0.207 C 
BRANCH  26  27
HETATM   27  C   UNK     0       2.779  14.090  93.280  0.00  0.00     0.146 C 
HETATM   28  C   UNK     0       3.988  13.700  94.122  0.00  0.00     0.042 C 
BRANCH  27  29
HETATM   29  O   UNK     0       2.882  15.471  92.932  0.00  0.00    -0.393 OA
HETATM   30  H   UNK     0       3.724  15.605  92.464  0.00  0.00     0.210 HD
ENDBRANCH  27  29
ENDBRANCH  26  27
BRANCH  26  31
HETATM   31  C   UNK     0       2.826  14.105  90.755  0.00  0.00     0.266 C 
HETATM   32  O   UNK     0       1.876  14.516  90.090  0.00  0.00    -0.269 OA
HETATM   33  N   UNK     0       4.148  14.321  90.451  0.00  0.00    -0.236 N 
HETATM   34  H   UNK     0       4.952  13.924  90.923  0.00  0.00     0.197 HD
BRANCH  33  35
HETATM   35  O   UNK     0       4.392  15.070  89.291  0.00  0.00    -0.287 OA
HETATM   36  H   UNK     0       4.696  14.368  88.691  0.00  0.00     0.244 HD
ENDBRANCH  33  35
ENDBRANCH  26  31
ENDBRANCH  24  26
ENDBRANCH  19  22
ENDBRANCH  15  16
ENDBRANCH  11  14
ENDBRANCH   7   8
ENDBRANCH   2   7
TORSDOF 10
ENDMDL
MODEL 4
REMARK VINA RESULT:      -5.7      1.746      2.848
REMARK  10 active torsions:
REMARK  status: ('A' for Active; 'I' for Inactive)
REMARK    1  A    between atoms: O_2  and  C_18 
REMARK    2  A    between atoms: O_5  and  N_8 
REMARK    3  A    between atoms: N_6  and  C_11 
REMARK    4  A    between atoms: N_7  and  C_15 
REMARK       I    between atoms: N_7  and  C_24 
REMARK       I    between atoms: N_8  and  C_23 
REMARK    5  A    between atoms: C_11  and  C_14 
REMARK    6  A    between atoms: C_15  and  C_18 
REMARK    7  A    between atoms: C_15  and  C_23 
REMARK    8  A    between atoms: C_21  and  C_26 
REMARK    9  A    between atoms: C_24  and  C_25 
REMARK   10  A    between atoms: C_29  and  C_32 
ROOT
HETATM    1  O   UNK     0      16.728   3.560  94.124  0.00  0.00    -0.388 OA
HETATM    2  N   UNK     0      14.365   3.195  92.579  0.00  0.00     0.096 N 
HETATM    3  C   UNK     0      14.394   4.099  93.738  0.00  0.00     0.299 C 
HETATM    4  C   UNK     0      15.338   2.110  92.764  0.00  0.00     0.299 C 
HETATM    5  C   UNK     0      15.808   4.637  93.939  0.00  0.00     0.198 C 
HETATM    6  C   UNK     0      16.729   2.694  92.989  0.00  0.00     0.198 C 
ENDROOT
BRANCH   2   7
HETATM    7  C   UNK     0      13.021   2.659  92.374  0.00  0.00     0.311 C 
BRANCH   7   8
HETATM    8  C   UNK     0      11.999   3.733  92.220  0.00  0.00    -0.030 A 
HETATM    9  C   UNK     0      11.589   4.127  90.945  0.00  0.00     0.010 A 
HETATM   10  C   UNK     0      10.634   5.133  90.800  0.00  0.00     0.021 A 
HETATM   11  C   UNK     0      10.088   5.743  91.929  0.00  0.00     0.018 A 
HETATM   12  C   UNK     0      10.496   5.350  93.202  0.00  0.00     0.021 A 
HETATM   13  C   UNK     0      11.451   4.344  93.348  0.00  0.00     0.010 A 
BRANCH  11  14
HETATM   14  C   UNK     0       9.107   6.773  91.780  0.00  0.00    -0.061 C 
HETATM   15  C   UNK     0       8.282   7.639  91.655  0.00  0.00    -0.061 C 
BRANCH  15  16
HETATM   16  C   UNK     0       7.301   8.668  91.504  0.00  0.00     0.018 A 
HETATM   17  C   UNK     0       6.216   8.728  92.380  0.00  0.00     0.022 A 
HETATM   18  C   UNK     0       5.260   9.734  92.235  0.00  0.00     0.018 A 
HETATM   19  C   UNK     0       5.409  10.655  91.220  0.00  0.00     0.032 A 
HETATM   20  C   UNK     0       6.472  10.617  90.342  0.00  0.00     0.018 A 
HETATM   21  C   UNK     0       7.428   9.611  90.485  0.00  0.00     0.022 A 
BRANCH  19  22
HETATM   22  C   UNK     0       4.389  11.724  91.065  0.00  0.00     0.252 C 
HETATM   23  O   UNK     0       3.334  11.468  90.490  0.00  0.00    -0.268 OA
HETATM   24  N   UNK     0       4.710  12.955  91.620  0.00  0.00    -0.341 N 
HETATM   25  H   UNK     0       5.591  13.087  92.102  0.00  0.00     0.163 HD
BRANCH  24  26
HETATM   26  C   UNK     0       3.815  14.084  91.573  0.00  0.00     0.207 C 
BRANCH  26  27
HETATM   27  C   UNK     0       3.711  14.701  90.173  0.00  0.00     0.146 C 
HETATM   28  C   UNK     0       5.075  14.907  89.523  0.00  0.00     0.042 C 
BRANCH  27  29
HETATM   29  O   UNK     0       2.921  13.857  89.336  0.00  0.00    -0.393 OA
HETATM   30  H   UNK     0       3.520  13.276  88.837  0.00  0.00     0.210 HD
ENDBRANCH  27  29
ENDBRANCH  26  27
BRANCH  26  31
HETATM   31  C   UNK     0       2.452  13.619  92.076  0.00  0.00     0.266 C 
HETATM   32  O   UNK     0       1.393  13.965  91.557  0.00  0.00    -0.269 OA
HETATM   33  N   UNK     0       2.556  12.812  93.184  0.00  0.00    -0.236 N 
HETATM   34  H   UNK     0       3.403  12.580  93.688  0.00  0.00     0.197 HD
BRANCH  33  35
HETATM   35  O   UNK     0       1.343  12.371  93.733  0.00  0.00    -0.287 OA
HETATM   36  H   UNK     0       1.321  12.898  94.550  0.00  0.00     0.244 HD
ENDBRANCH  33  35
ENDBRANCH  26  31
ENDBRANCH  24  26
ENDBRANCH  19  22
ENDBRANCH  15  16
ENDBRANCH  11  14
ENDBRANCH   7   8
ENDBRANCH   2   7
TORSDOF 10
ENDMDL
MODEL 5
REMARK VINA RESULT:      -5.3      2.897     12.319
REMARK  10 active torsions:
REMARK  status: ('A' for Active; 'I' for Inactive)
REMARK    1  A    between atoms: O_2  and  C_18 
REMARK    2  A    between atoms: O_5  and  N_8 
REMARK    3  A    between atoms: N_6  and  C_11 
REMARK    4  A    between atoms: N_7  and  C_15 
REMARK       I    between atoms: N_7  and  C_24 
REMARK       I    between atoms: N_8  and  C_23 
REMARK    5  A    between atoms: C_11  and  C_14 
REMARK    6  A    between atoms: C_15  and  C_18 
REMARK    7  A    between atoms: C_15  and  C_23 
REMARK    8  A    between atoms: C_21  and  C_26 
REMARK    9  A    between atoms: C_24  and  C_25 
REMARK   10  A    between atoms: C_29  and  C_32 
ROOT
HETATM    1  O   UNK     0       2.648  14.297  94.124  0.00  0.00    -0.388 OA
HETATM    2  N   UNK     0       2.427  14.426  91.289  0.00  0.00     0.096 N 
HETATM    3  C   UNK     0       1.709  13.409  92.070  0.00  0.00     0.299 C 
HETATM    4  C   UNK     0       3.664  14.812  91.981  0.00  0.00     0.299 C 
HETATM    5  C   UNK     0       1.428  13.938  93.473  0.00  0.00     0.198 C 
HETATM    6  C   UNK     0       3.337  15.308  93.387  0.00  0.00     0.198 C 
ENDROOT
BRANCH   2   7
HETATM    7  C   UNK     0       2.717  13.936  89.942  0.00  0.00     0.311 C 
BRANCH   7   8
HETATM    8  C   UNK     0       3.729  12.842  89.942  0.00  0.00    -0.030 A 
HETATM    9  C   UNK     0       3.398  11.586  90.452  0.00  0.00     0.010 A 
HETATM   10  C   UNK     0       4.345  10.562  90.454  0.00  0.00     0.021 A 
HETATM   11  C   UNK     0       5.622  10.794  89.945  0.00  0.00     0.018 A 
HETATM   12  C   UNK     0       5.954  12.048  89.435  0.00  0.00     0.021 A 
HETATM   13  C   UNK     0       5.008  13.072  89.433  0.00  0.00     0.010 A 
BRANCH  11  14
HETATM   14  C   UNK     0       6.593   9.743  89.945  0.00  0.00    -0.061 C 
HETATM   15  C   UNK     0       7.409   8.860  89.945  0.00  0.00    -0.061 C 
BRANCH  15  16
HETATM   16  C   UNK     0       8.379   7.811  89.947  0.00  0.00     0.018 A 
HETATM   17  C   UNK     0       8.858   7.304  88.738  0.00  0.00     0.022 A 
HETATM   18  C   UNK     0       9.807   6.281  88.739  0.00  0.00     0.018 A 
HETATM   19  C   UNK     0      10.255   5.788  89.947  0.00  0.00     0.032 A 
HETATM   20  C   UNK     0       9.796   6.272  91.155  0.00  0.00     0.018 A 
HETATM   21  C   UNK     0       8.847   7.294  91.154  0.00  0.00     0.022 A 
BRANCH  19  22
HETATM   22  C   UNK     0      11.264   4.698  89.948  0.00  0.00     0.252 C 
HETATM   23  O   UNK     0      11.448   4.051  88.920  0.00  0.00    -0.268 OA
HETATM   24  N   UNK     0      11.953   4.508  91.137  0.00  0.00    -0.341 N 
HETATM   25  H   UNK     0      11.765   5.098  91.939  0.00  0.00     0.163 HD
BRANCH  24  26
HETATM   26  C   UNK     0      12.978   3.506  91.288  0.00  0.00     0.207 C 
BRANCH  26  27
HETATM   27  C   UNK     0      14.170   3.998  92.119  0.00  0.00     0.146 C 
HETATM   28  C   UNK     0      13.797   4.267  93.573  0.00  0.00     0.042 C 
BRANCH  27  29
HETATM   29  O   UNK     0      15.213   3.024  92.081  0.00  0.00    -0.393 OA
HETATM   30  H   UNK     0      15.247   2.649  91.185  0.00  0.00     0.210 HD
ENDBRANCH  27  29
ENDBRANCH  26  27
BRANCH  26  31
HETATM   31  C   UNK     0      12.336   2.273  91.914  0.00  0.00     0.266 C 
HETATM   32  O   UNK     0      12.914   1.191  92.006  0.00  0.00    -0.269 OA
HETATM   33  N   UNK     0      11.045   2.509  92.319  0.00  0.00    -0.236 N 
HETATM   34  H   UNK     0      10.510   3.358  92.178  0.00  0.00     0.197 HD
BRANCH  33  35
HETATM   35  O   UNK     0      10.369   1.412  92.872  0.00  0.00    -0.287 OA
HETATM   36  H   UNK     0       9.803   1.865  93.521  0.00  0.00     0.244 HD
ENDBRANCH  33  35
ENDBRANCH  26  31
ENDBRANCH  24  26
ENDBRANCH  19  22
ENDBRANCH  15  16
ENDBRANCH  11  14
ENDBRANCH   7   8
ENDBRANCH   2   7
TORSDOF 10
ENDMDL
MODEL 6
REMARK VINA RESULT:      -5.0      2.677     12.437
REMARK  10 active torsions:
REMARK  status: ('A' for Active; 'I' for Inactive)
REMARK    1  A    between atoms: O_2  and  C_18 
REMARK    2  A    between atoms: O_5  and  N_8 
REMARK    3  A    between atoms: N_6  and  C_11 
REMARK    4  A    between atoms: N_7  and  C_15 
REMARK       I    between atoms: N_7  and  C_24 
REMARK       I    between atoms: N_8  and  C_23 
REMARK    5  A    between atoms: C_11  and  C_14 
REMARK    6  A    between atoms: C_15  and  C_18 
REMARK    7  A    between atoms: C_15  and  C_23 
REMARK    8  A    between atoms: C_21  and  C_26 
REMARK    9  A    between atoms: C_24  and  C_25 
REMARK   10  A    between atoms: C_29  and  C_32 
ROOT
HETATM    1  O   UNK     0       2.914  14.945  93.761  0.00  0.00    -0.388 OA
HETATM    2  N   UNK     0       2.659  14.373  90.984  0.00  0.00     0.096 N 
HETATM    3  C   UNK     0       1.702  13.847  91.967  0.00  0.00     0.299 C 
HETATM    4  C   UNK     0       3.973  14.562  91.612  0.00  0.00     0.299 C 
HETATM    5  C   UNK     0       1.624  14.788  93.167  0.00  0.00     0.198 C 
HETATM    6  C   UNK     0       3.842  15.485  92.820  0.00  0.00     0.198 C 
ENDROOT
BRANCH   2   7
HETATM    7  C   UNK     0       2.758  13.481  89.830  0.00  0.00     0.311 C 
BRANCH   7   8
HETATM    8  C   UNK     0       3.797  12.428  90.014  0.00  0.00    -0.030 A 
HETATM    9  C   UNK     0       3.538  11.331  90.836  0.00  0.00     0.010 A 
HETATM   10  C   UNK     0       4.510  10.345  91.010  0.00  0.00     0.021 A 
HETATM   11  C   UNK     0       5.739  10.457  90.361  0.00  0.00     0.018 A 
HETATM   12  C   UNK     0       5.998  11.552  89.539  0.00  0.00     0.021 A 
HETATM   13  C   UNK     0       5.027  12.538  89.365  0.00  0.00     0.010 A 
BRANCH  11  14
HETATM   14  C   UNK     0       6.735   9.445  90.538  0.00  0.00    -0.061 C 
HETATM   15  C   UNK     0       7.572   8.595  90.687  0.00  0.00    -0.061 C 
BRANCH  15  16
HETATM   16  C   UNK     0       8.565   7.584  90.864  0.00  0.00     0.018 A 
HETATM   17  C   UNK     0       9.101   6.931  89.753  0.00  0.00     0.022 A 
HETATM   18  C   UNK     0      10.072   5.945  89.926  0.00  0.00     0.018 A 
HETATM   19  C   UNK     0      10.487   5.634  91.204  0.00  0.00     0.032 A 
HETATM   20  C   UNK     0       9.974   6.264  92.318  0.00  0.00     0.018 A 
HETATM   21  C   UNK     0       9.001   7.249  92.146  0.00  0.00     0.022 A 
BRANCH  19  22
HETATM   22  C   UNK     0      11.521   4.582  91.387  0.00  0.00     0.252 C 
HETATM   23  O   UNK     0      11.845   3.886  90.428  0.00  0.00    -0.268 OA
HETATM   24  N   UNK     0      12.070   4.485  92.658  0.00  0.00    -0.341 N 
HETATM   25  H   UNK     0      11.770   5.111  93.396  0.00  0.00     0.163 HD
BRANCH  24  26
HETATM   26  C   UNK     0      13.099   3.532  92.987  0.00  0.00     0.207 C 
BRANCH  26  27
HETATM   27  C   UNK     0      13.001   2.243  92.161  0.00  0.00     0.146 C 
HETATM   28  C   UNK     0      14.048   1.210  92.563  0.00  0.00     0.042 C 
BRANCH  27  29
HETATM   29  O   UNK     0      11.702   1.672  92.320  0.00  0.00    -0.393 OA
HETATM   30  H   UNK     0      11.627   0.913  91.718  0.00  0.00     0.210 HD
ENDBRANCH  27  29
ENDBRANCH  26  27
BRANCH  26  31
HETATM   31  C   UNK     0      14.448   4.216  92.789  0.00  0.00     0.266 C 
HETATM   32  O   UNK     0      14.903   4.491  91.680  0.00  0.00    -0.269 OA
HETATM   33  N   UNK     0      15.094   4.445  93.979  0.00  0.00    -0.236 N 
HETATM   34  H   UNK     0      14.790   4.152  94.901  0.00  0.00     0.197 HD
BRANCH  33  35
HETATM   35  O   UNK     0      16.361   5.037  93.882  0.00  0.00    -0.287 OA
HETATM   36  H   UNK     0      16.313   5.672  94.617  0.00  0.00     0.244 HD
ENDBRANCH  33  35
ENDBRANCH  26  31
ENDBRANCH  24  26
ENDBRANCH  19  22
ENDBRANCH  15  16
ENDBRANCH  11  14
ENDBRANCH   7   8
ENDBRANCH   2   7
TORSDOF 10
ENDMDL
MODEL 7
REMARK VINA RESULT:      -4.9      2.132     12.570
REMARK  10 active torsions:
REMARK  status: ('A' for Active; 'I' for Inactive)
REMARK    1  A    between atoms: O_2  and  C_18 
REMARK    2  A    between atoms: O_5  and  N_8 
REMARK    3  A    between atoms: N_6  and  C_11 
REMARK    4  A    between atoms: N_7  and  C_15 
REMARK       I    between atoms: N_7  and  C_24 
REMARK       I    between atoms: N_8  and  C_23 
REMARK    5  A    between atoms: C_11  and  C_14 
REMARK    6  A    between atoms: C_15  and  C_18 
REMARK    7  A    between atoms: C_15  and  C_23 
REMARK    8  A    between atoms: C_21  and  C_26 
REMARK    9  A    between atoms: C_24  and  C_25 
REMARK   10  A    between atoms: C_29  and  C_32 
ROOT
HETATM    1  O   UNK     0       3.110  14.381  92.151  0.00  0.00    -0.388 OA
HETATM    2  N   UNK     0       4.010  14.090  89.467  0.00  0.00     0.096 N 
HETATM    3  C   UNK     0       2.926  13.257  90.008  0.00  0.00     0.299 C 
HETATM    4  C   UNK     0       4.924  14.488  90.545  0.00  0.00     0.299 C 
HETATM    5  C   UNK     0       2.197  14.014  91.115  0.00  0.00     0.198 C 
HETATM    6  C   UNK     0       4.149  15.215  91.640  0.00  0.00     0.198 C 
ENDROOT
BRANCH   2   7
HETATM    7  C   UNK     0       4.729  13.380  88.411  0.00  0.00     0.311 C 
BRANCH   7   8
HETATM    8  C   UNK     0       5.560  12.262  88.942  0.00  0.00    -0.030 A 
HETATM    9  C   UNK     0       6.951  12.315  88.833  0.00  0.00     0.010 A 
HETATM   10  C   UNK     0       7.729  11.269  89.328  0.00  0.00     0.021 A 
HETATM   11  C   UNK     0       7.117  10.172  89.934  0.00  0.00     0.018 A 
HETATM   12  C   UNK     0       5.729  10.118  90.043  0.00  0.00     0.021 A 
HETATM   13  C   UNK     0       4.950  11.164  89.548  0.00  0.00     0.010 A 
BRANCH  11  14
HETATM   14  C   UNK     0       7.916   9.099  90.443  0.00  0.00    -0.061 C 
HETATM   15  C   UNK     0       8.586   8.198  90.872  0.00  0.00    -0.061 C 
BRANCH  15  16
HETATM   16  C   UNK     0       9.384   7.128  91.382  0.00  0.00     0.018 A 
HETATM   17  C   UNK     0       9.840   6.128  90.522  0.00  0.00     0.022 A 
HETATM   18  C   UNK     0      10.621   5.085  91.019  0.00  0.00     0.018 A 
HETATM   19  C   UNK     0      10.929   5.064  92.364  0.00  0.00     0.032 A 
HETATM   20  C   UNK     0      10.490   6.040  93.234  0.00  0.00     0.018 A 
HETATM   21  C   UNK     0       9.709   7.083  92.738  0.00  0.00     0.022 A 
BRANCH  19  22
HETATM   22  C   UNK     0      11.759   3.951  92.893  0.00  0.00     0.252 C 
HETATM   23  O   UNK     0      11.224   2.877  93.158  0.00  0.00    -0.268 OA
HETATM   24  N   UNK     0      13.115   4.214  93.027  0.00  0.00    -0.341 N 
HETATM   25  H   UNK     0      13.490   5.118  92.765  0.00  0.00     0.163 HD
BRANCH  24  26
HETATM   26  C   UNK     0      14.053   3.230  93.504  0.00  0.00     0.207 C 
BRANCH  26  27
HETATM   27  C   UNK     0      14.150   2.008  92.582  0.00  0.00     0.146 C 
HETATM   28  C   UNK     0      15.077   2.244  91.395  0.00  0.00     0.042 C 
BRANCH  27  29
HETATM   29  O   UNK     0      14.625   0.886  93.325  0.00  0.00    -0.393 OA
HETATM   30  H   UNK     0      15.583   0.992  93.458  0.00  0.00     0.210 HD
ENDBRANCH  27  29
ENDBRANCH  26  27
BRANCH  26  31
HETATM   31  C   UNK     0      15.407   3.914  93.662  0.00  0.00     0.266 C 
HETATM   32  O   UNK     0      15.575   5.117  93.472  0.00  0.00    -0.269 OA
HETATM   33  N   UNK     0      16.401   3.027  93.997  0.00  0.00    -0.236 N 
HETATM   34  H   UNK     0      16.315   2.020  94.073  0.00  0.00     0.197 HD
BRANCH  33  35
HETATM   35  O   UNK     0      17.687   3.571  94.124  0.00  0.00    -0.287 OA
HETATM   36  H   UNK     0      17.682   3.811  95.066  0.00  0.00     0.244 HD
ENDBRANCH  33  35
ENDBRANCH  26  31
ENDBRANCH  24  26
ENDBRANCH  19  22
ENDBRANCH  15  16
ENDBRANCH  11  14
ENDBRANCH   7   8
ENDBRANCH   2   7
TORSDOF 10
ENDMDL
MODEL 8
REMARK VINA RESULT:      -4.8      2.139     12.420
REMARK  10 active torsions:
REMARK  status: ('A' for Active; 'I' for Inactive)
REMARK    1  A    between atoms: O_2  and  C_18 
REMARK    2  A    between atoms: O_5  and  N_8 
REMARK    3  A    between atoms: N_6  and  C_11 
REMARK    4  A    between atoms: N_7  and  C_15 
REMARK       I    between atoms: N_7  and  C_24 
REMARK       I    between atoms: N_8  and  C_23 
REMARK    5  A    between atoms: C_11  and  C_14 
REMARK    6  A    between atoms: C_15  and  C_18 
REMARK    7  A    between atoms: C_15  and  C_23 
REMARK    8  A    between atoms: C_21  and  C_26 
REMARK    9  A    between atoms: C_24  and  C_25 
REMARK   10  A    between atoms: C_29  and  C_32 
ROOT
HETATM    1  O   UNK     0       5.665  15.048  88.993  0.00  0.00    -0.388 OA
HETATM    2  N   UNK     0       3.675  13.437  90.237  0.00  0.00     0.096 N 
HETATM    3  C   UNK     0       4.280  14.582  90.931  0.00  0.00     0.299 C 
HETATM    4  C   UNK     0       4.628  12.872  89.272  0.00  0.00     0.299 C 
HETATM    5  C   UNK     0       4.733  15.624  89.911  0.00  0.00     0.198 C 
HETATM    6  C   UNK     0       5.075  13.953  88.292  0.00  0.00     0.198 C 
ENDROOT
BRANCH   2   7
HETATM    7  C   UNK     0       3.242  12.421  91.194  0.00  0.00     0.311 C 
BRANCH   7   8
HETATM    8  C   UNK     0       4.257  11.345  91.379  0.00  0.00    -0.030 A 
HETATM    9  C   UNK     0       4.274  10.248  90.516  0.00  0.00     0.010 A 
HETATM   10  C   UNK     0       5.222   9.240  90.689  0.00  0.00     0.021 A 
HETATM   11  C   UNK     0       6.154   9.330  91.723  0.00  0.00     0.018 A 
HETATM   12  C   UNK     0       6.138  10.424  92.584  0.00  0.00     0.021 A 
HETATM   13  C   UNK     0       5.189  11.433  92.412  0.00  0.00     0.010 A 
BRANCH  11  14
HETATM   14  C   UNK     0       7.127   8.296  91.899  0.00  0.00    -0.061 C 
HETATM   15  C   UNK     0       7.945   7.427  92.047  0.00  0.00    -0.061 C 
BRANCH  15  16
HETATM   16  C   UNK     0       8.918   6.396  92.224  0.00  0.00     0.018 A 
HETATM   17  C   UNK     0       8.873   5.252  91.426  0.00  0.00     0.022 A 
HETATM   18  C   UNK     0       9.823   4.245  91.597  0.00  0.00     0.018 A 
HETATM   19  C   UNK     0      10.798   4.405  92.560  0.00  0.00     0.032 A 
HETATM   20  C   UNK     0      10.864   5.525  93.361  0.00  0.00     0.018 A 
HETATM   21  C   UNK     0       9.913   6.532  93.191  0.00  0.00     0.022 A 
BRANCH  19  22
HETATM   22  C   UNK     0      11.809   3.332  92.743  0.00  0.00     0.252 C 
HETATM   23  O   UNK     0      11.577   2.208  92.303  0.00  0.00    -0.268 OA
HETATM   24  N   UNK     0      12.977   3.702  93.394  0.00  0.00    -0.341 N 
HETATM   25  H   UNK     0      13.109   4.656  93.708  0.00  0.00     0.163 HD
BRANCH  24  26
HETATM   26  C   UNK     0      14.061   2.781  93.625  0.00  0.00     0.207 C 
BRANCH  26  27
HETATM   27  C   UNK     0      14.252   1.787  92.473  0.00  0.00     0.146 C 
HETATM   28  C   UNK     0      15.230   2.296  91.419  0.00  0.00     0.042 C 
BRANCH  27  29
HETATM   29  O   UNK     0      14.731   0.545  92.988  0.00  0.00    -0.393 OA
HETATM   30  H   UNK     0      14.994   0.680  93.914  0.00  0.00     0.210 HD
ENDBRANCH  27  29
ENDBRANCH  26  27
BRANCH  26  31
HETATM   31  C   UNK     0      15.325   3.600  93.866  0.00  0.00     0.266 C 
HETATM   32  O   UNK     0      16.415   3.091  94.122  0.00  0.00    -0.269 OA
HETATM   33  N   UNK     0      15.088   4.952  93.800  0.00  0.00    -0.236 N 
HETATM   34  H   UNK     0      14.189   5.405  93.680  0.00  0.00     0.197 HD
BRANCH  33  35
HETATM   35  O   UNK     0      16.193   5.778  94.048  0.00  0.00    -0.287 OA
HETATM   36  H   UNK     0      16.053   6.464  93.373  0.00  0.00     0.244 HD
ENDBRANCH  33  35
ENDBRANCH  26  31
ENDBRANCH  24  26
ENDBRANCH  19  22
ENDBRANCH  15  16
ENDBRANCH  11  14
ENDBRANCH   7   8
ENDBRANCH   2   7
TORSDOF 10
ENDMDL
MODEL 9
REMARK VINA RESULT:      -4.7      1.777      2.764
REMARK  10 active torsions:
REMARK  status: ('A' for Active; 'I' for Inactive)
REMARK    1  A    between atoms: O_2  and  C_18 
REMARK    2  A    between atoms: O_5  and  N_8 
REMARK    3  A    between atoms: N_6  and  C_11 
REMARK    4  A    between atoms: N_7  and  C_15 
REMARK       I    between atoms: N_7  and  C_24 
REMARK       I    between atoms: N_8  and  C_23 
REMARK    5  A    between atoms: C_11  and  C_14 
REMARK    6  A    between atoms: C_15  and  C_18 
REMARK    7  A    between atoms: C_15  and  C_23 
REMARK    8  A    between atoms: C_21  and  C_26 
REMARK    9  A    between atoms: C_24  and  C_25 
REMARK   10  A    between atoms: C_29  and  C_32 
ROOT
HETATM    1  O   UNK     0      16.852   3.212  94.049  0.00  0.00    -0.388 OA
HETATM    2  N   UNK     0      14.223   2.914  92.999  0.00  0.00     0.096 N 
HETATM    3  C   UNK     0      14.569   4.024  93.898  0.00  0.00     0.299 C 
HETATM    4  C   UNK     0      15.072   1.750  93.286  0.00  0.00     0.299 C 
HETATM    5  C   UNK     0      16.052   4.360  93.757  0.00  0.00     0.198 C 
HETATM    6  C   UNK     0      16.542   2.139  93.160  0.00  0.00     0.198 C 
ENDROOT
BRANCH   2   7
HETATM    7  C   UNK     0      12.808   2.568  93.125  0.00  0.00     0.311 C 
BRANCH   7   8
HETATM    8  C   UNK     0      11.912   3.703  92.762  0.00  0.00    -0.030 A 
HETATM    9  C   UNK     0      11.214   4.386  93.758  0.00  0.00     0.010 A 
HETATM   10  C   UNK     0      10.373   5.446  93.419  0.00  0.00     0.021 A 
HETATM   11  C   UNK     0      10.232   5.823  92.084  0.00  0.00     0.018 A 
HETATM   12  C   UNK     0      10.929   5.142  91.088  0.00  0.00     0.021 A 
HETATM   13  C   UNK     0      11.769   4.081  91.427  0.00  0.00     0.010 A 
BRANCH  11  14
HETATM   14  C   UNK     0       9.372   6.912  91.736  0.00  0.00    -0.061 C 
HETATM   15  C   UNK     0       8.648   7.827  91.444  0.00  0.00    -0.061 C 
BRANCH  15  16
HETATM   16  C   UNK     0       7.790   8.915  91.097  0.00  0.00     0.018 A 
HETATM   17  C   UNK     0       7.840   9.460  89.813  0.00  0.00     0.022 A 
HETATM   18  C   UNK     0       7.001  10.521  89.474  0.00  0.00     0.018 A 
HETATM   19  C   UNK     0       6.130  11.013  90.423  0.00  0.00     0.032 A 
HETATM   20  C   UNK     0       6.061  10.492  91.698  0.00  0.00     0.018 A 
HETATM   21  C   UNK     0       6.900   9.431  92.039  0.00  0.00     0.022 A 
BRANCH  19  22
HETATM   22  C   UNK     0       5.237  12.144  90.061  0.00  0.00     0.252 C 
HETATM   23  O   UNK     0       5.113  12.456  88.880  0.00  0.00    -0.268 OA
HETATM   24  N   UNK     0       4.577  12.759  91.116  0.00  0.00    -0.341 N 
HETATM   25  H   UNK     0       4.709  12.430  92.066  0.00  0.00     0.163 HD
BRANCH  24  26
HETATM   26  C   UNK     0       3.660  13.854  90.925  0.00  0.00     0.207 C 
BRANCH  26  27
HETATM   27  C   UNK     0       2.196  13.398  90.866  0.00  0.00     0.146 C 
HETATM   28  C   UNK     0       1.788  12.586  92.090  0.00  0.00     0.042 C 
BRANCH  27  29
HETATM   29  O   UNK     0       1.345  14.539  90.762  0.00  0.00    -0.393 OA
HETATM   30  H   UNK     0       1.153  14.859  91.660  0.00  0.00     0.210 HD
ENDBRANCH  27  29
ENDBRANCH  26  27
BRANCH  26  31
HETATM   31  C   UNK     0       3.885  14.853  92.054  0.00  0.00     0.266 C 
HETATM   32  O   UNK     0       4.846  15.619  92.089  0.00  0.00    -0.269 OA
HETATM   33  N   UNK     0       2.918  14.764  93.027  0.00  0.00    -0.236 N 
HETATM   34  H   UNK     0       2.166  14.087  93.074  0.00  0.00     0.197 HD
BRANCH  33  35
HETATM   35  O   UNK     0       3.074  15.625  94.122  0.00  0.00    -0.287 OA
HETATM   36  H   UNK     0       3.690  15.106  94.666  0.00  0.00     0.244 HD
ENDBRANCH  33  35
ENDBRANCH  26  31
ENDBRANCH  24  26
ENDBRANCH  19  22
ENDBRANCH  15  16
ENDBRANCH  11  14
ENDBRANCH   7   8
ENDBRANCH   2   7
TORSDOF 10
ENDMDL
