MODEL 1
REMARK VINA RESULT:      -6.5      0.000      0.000
REMARK  12 active torsions:
REMARK  status: ('A' for Active; 'I' for Inactive)
REMARK    1  A    between atoms: O_2  and  C_16 
REMARK    2  A    between atoms: N_5  and  C_9 
REMARK    3  A    between atoms: N_6  and  C_13 
REMARK       I    between atoms: N_6  and  C_22 
REMARK    4  A    between atoms: C_9  and  C_12 
REMARK    5  A    between atoms: C_13  and  C_16 
REMARK    6  A    between atoms: C_13  and  C_21 
REMARK    7  A    between atoms: C_19  and  C_24 
REMARK    8  A    between atoms: C_21  and  C_33 
REMARK    9  A    between atoms: C_22  and  C_23 
REMARK   10  A    between atoms: C_27  and  C_30 
REMARK   11  A    between atoms: C_33  and  C_34 
REMARK   12  A    between atoms: C_34  and  C_35 
ROOT
HETATM    1  O   UNL     1      16.555   3.387  93.607  1.00  0.00    -0.350 OA
HETATM    2  N   UNL     1      13.869   2.789  92.880  1.00  0.00     0.147 N 
HETATM    3  C   UNL     1      14.850   1.725  93.141  1.00  0.00     0.283 C 
HETATM    4  C   UNL     1      14.551   3.991  92.381  1.00  0.00     0.283 C 
HETATM    5  C   UNL     1      15.905   2.224  94.124  1.00  0.00     0.178 C 
HETATM    6  C   UNL     1      15.613   4.436  93.381  1.00  0.00     0.178 C 
ENDROOT
BRANCH   2   7
HETATM    7  C   UNL     1      12.854   2.335  91.932  1.00  0.00     0.277 C 
BRANCH   7   8
HETATM    8  C   UNL     1      11.721   3.297  91.809  1.00  0.00     0.011 A 
HETATM    9  C   UNL     1      11.349   4.078  92.904  1.00  0.00    -0.002 A 
HETATM   10  C   UNL     1      10.288   4.976  92.792  1.00  0.00     0.008 A 
HETATM   11  C   UNL     1       9.602   5.095  91.584  1.00  0.00     0.042 A 
HETATM   12  C   UNL     1       9.973   4.317  90.490  1.00  0.00     0.008 A 
HETATM   13  C   UNL     1      11.033   3.417  90.602  1.00  0.00    -0.002 A 
BRANCH  11  14
HETATM   14  C   UNL     1       8.515   6.019  91.468  1.00  0.00    -0.059 C 
HETATM   15  C   UNL     1       7.602   6.795  91.371  1.00  0.00    -0.059 C 
BRANCH  15  16
HETATM   16  C   UNL     1       6.516   7.717  91.256  1.00  0.00     0.042 A 
HETATM   17  C   UNL     1       6.716   8.956  90.647  1.00  0.00     0.008 A 
HETATM   18  C   UNL     1       5.656   9.855  90.532  1.00  0.00     0.005 A 
HETATM   19  C   UNL     1       4.420   9.496  91.028  1.00  0.00     0.056 A 
HETATM   20  C   UNL     1       4.197   8.278  91.634  1.00  0.00     0.005 A 
HETATM   21  C   UNL     1       5.256   7.378  91.750  1.00  0.00     0.008 A 
BRANCH  19  22
HETATM   22  C   UNL     1       3.292  10.455  90.907  1.00  0.00     0.254 C 
HETATM   23  O   UNL     1       2.319  10.153  90.220  1.00  0.00    -0.268 OA
HETATM   24  N   UNL     1       3.420  11.638  91.622  1.00  0.00    -0.335 N 
HETATM   25  HN  UNL     1       4.243  11.808  92.189  1.00  0.00     0.164 HD
BRANCH  24  26
HETATM   26  C   UNL     1       2.401  12.656  91.626  1.00  0.00     0.166 C 
BRANCH  26  27
HETATM   27  C   UNL     1       2.247  13.336  92.992  1.00  0.00     0.138 C 
HETATM   28  C   UNL     1       3.470  13.144  93.881  1.00  0.00     0.034 C 
BRANCH  27  29
HETATM   29  O   UNL     1       2.024  14.734  92.807  1.00  0.00    -0.383 OA
HETATM   30  H   UNL     1       1.726  15.110  93.652  1.00  0.00     0.210 HD
ENDBRANCH  27  29
ENDBRANCH  26  27
BRANCH  26  31
HETATM   31  C   UNL     1       2.749  13.668  90.538  1.00  0.00     0.181 C 
HETATM   32  O   UNL     1       2.016  14.609  90.240  1.00  0.00    -0.294 OA
BRANCH  31  33
HETATM   33  C   UNL     1       4.227  14.296  90.751  1.00  0.00     0.138 C 
BRANCH  33  34
HETATM   34  C   UNL     1       4.688  14.370  89.418  1.00  0.00     0.208 C 
HETATM   35  O   UNL     1       4.973  15.474  89.014  1.00  0.00    -0.289 OA
BRANCH  34  36
HETATM   36  C   UNL     1       5.144  13.389  88.581  1.00  0.00     0.194 C 
HETATM   37  O   UNL     1       6.365  12.706  88.569  1.00  0.00    -0.185 OA
ENDBRANCH  34  36
ENDBRANCH  33  34
ENDBRANCH  31  33
ENDBRANCH  26  31
ENDBRANCH  24  26
ENDBRANCH  19  22
ENDBRANCH  15  16
ENDBRANCH  11  14
ENDBRANCH   7   8
ENDBRANCH   2   7
TORSDOF 12
ENDMDL
MODEL 2
REMARK VINA RESULT:      -5.2      2.356     12.867
REMARK  12 active torsions:
REMARK  status: ('A' for Active; 'I' for Inactive)
REMARK    1  A    between atoms: O_2  and  C_16 
REMARK    2  A    between atoms: N_5  and  C_9 
REMARK    3  A    between atoms: N_6  and  C_13 
REMARK       I    between atoms: N_6  and  C_22 
REMARK    4  A    between atoms: C_9  and  C_12 
REMARK    5  A    between atoms: C_13  and  C_16 
REMARK    6  A    between atoms: C_13  and  C_21 
REMARK    7  A    between atoms: C_19  and  C_24 
REMARK    8  A    between atoms: C_21  and  C_33 
REMARK    9  A    between atoms: C_22  and  C_23 
REMARK   10  A    between atoms: C_27  and  C_30 
REMARK   11  A    between atoms: C_33  and  C_34 
REMARK   12  A    between atoms: C_34  and  C_35 
ROOT
HETATM    1  O   UNL     1       3.123  14.762  94.030  1.00  0.00    -0.350 OA
HETATM    2  N   UNL     1       2.798  14.293  91.241  1.00  0.00     0.147 N 
HETATM    3  C   UNL     1       1.740  13.958  92.205  1.00  0.00     0.283 C 
HETATM    4  C   UNL     1       4.114  14.203  91.887  1.00  0.00     0.283 C 
HETATM    5  C   UNL     1       1.837  14.878  93.419  1.00  0.00     0.178 C 
HETATM    6  C   UNL     1       4.155  15.116  93.109  1.00  0.00     0.178 C 
ENDROOT
BRANCH   2   7
HETATM    7  C   UNL     1       2.731  13.416  90.073  1.00  0.00     0.277 C 
BRANCH   7   8
HETATM    8  C   UNL     1       3.750  12.329  90.120  1.00  0.00     0.011 A 
HETATM    9  C   UNL     1       5.004  12.524  89.540  1.00  0.00    -0.002 A 
HETATM   10  C   UNL     1       5.957  11.507  89.581  1.00  0.00     0.008 A 
HETATM   11  C   UNL     1       5.657  10.296  90.205  1.00  0.00     0.042 A 
HETATM   12  C   UNL     1       4.406  10.101  90.785  1.00  0.00     0.008 A 
HETATM   13  C   UNL     1       3.452  11.117  90.743  1.00  0.00    -0.002 A 
BRANCH  11  14
HETATM   14  C   UNL     1       6.636   9.254  90.249  1.00  0.00    -0.059 C 
HETATM   15  C   UNL     1       7.459   8.378  90.285  1.00  0.00    -0.059 C 
BRANCH  15  16
HETATM   16  C   UNL     1       8.437   7.336  90.329  1.00  0.00     0.042 A 
HETATM   17  C   UNL     1       8.432   6.419  91.379  1.00  0.00     0.008 A 
HETATM   18  C   UNL     1       9.385   5.401  91.420  1.00  0.00     0.005 A 
HETATM   19  C   UNL     1      10.321   5.324  90.410  1.00  0.00     0.056 A 
HETATM   20  C   UNL     1      10.348   6.219  89.361  1.00  0.00     0.005 A 
HETATM   21  C   UNL     1       9.395   7.237  89.319  1.00  0.00     0.008 A 
BRANCH  19  22
HETATM   22  C   UNL     1      11.337   4.241  90.455  1.00  0.00     0.254 C 
HETATM   23  O   UNL     1      11.294   3.342  89.618  1.00  0.00    -0.268 OA
HETATM   24  N   UNL     1      12.296   4.348  91.453  1.00  0.00    -0.335 N 
HETATM   25  HN  UNL     1      12.284   5.132  92.094  1.00  0.00     0.164 HD
BRANCH  24  26
HETATM   26  C   UNL     1      13.361   3.390  91.611  1.00  0.00     0.166 C 
BRANCH  26  27
HETATM   27  C   UNL     1      14.676   3.854  90.971  1.00  0.00     0.138 C 
HETATM   28  C   UNL     1      15.185   2.882  89.913  1.00  0.00     0.034 C 
BRANCH  27  29
HETATM   29  O   UNL     1      14.489   5.135  90.371  1.00  0.00    -0.383 OA
HETATM   30  H   UNL     1      14.319   5.006  89.423  1.00  0.00     0.210 HD
ENDBRANCH  27  29
ENDBRANCH  26  27
BRANCH  26  31
HETATM   31  C   UNL     1      13.533   3.127  93.103  1.00  0.00     0.181 C 
HETATM   32  O   UNL     1      12.598   2.825  93.842  1.00  0.00    -0.294 OA
BRANCH  31  33
HETATM   33  C   UNL     1      14.706   2.046  93.393  1.00  0.00     0.138 C 
BRANCH  33  34
HETATM   34  C   UNL     1      15.803   2.896  93.654  1.00  0.00     0.208 C 
HETATM   35  O   UNL     1      16.860   2.566  93.167  1.00  0.00    -0.289 OA
BRANCH  34  36
HETATM   36  C   UNL     1      15.838   4.180  94.123  1.00  0.00     0.194 C 
HETATM   37  O   UNL     1      16.278   5.357  93.506  1.00  0.00    -0.185 OA
ENDBRANCH  34  36
ENDBRANCH  33  34
ENDBRANCH  31  33
ENDBRANCH  26  31
ENDBRANCH  24  26
ENDBRANCH  19  22
ENDBRANCH  15  16
ENDBRANCH  11  14
ENDBRANCH   7   8
ENDBRANCH   2   7
TORSDOF 12
ENDMDL
MODEL 3
REMARK VINA RESULT:      -4.9      2.817     12.374
REMARK  12 active torsions:
REMARK  status: ('A' for Active; 'I' for Inactive)
REMARK    1  A    between atoms: O_2  and  C_16 
REMARK    2  A    between atoms: N_5  and  C_9 
REMARK    3  A    between atoms: N_6  and  C_13 
REMARK       I    between atoms: N_6  and  C_22 
REMARK    4  A    between atoms: C_9  and  C_12 
REMARK    5  A    between atoms: C_13  and  C_16 
REMARK    6  A    between atoms: C_13  and  C_21 
REMARK    7  A    between atoms: C_19  and  C_24 
REMARK    8  A    between atoms: C_21  and  C_33 
REMARK    9  A    between atoms: C_22  and  C_23 
REMARK   10  A    between atoms: C_27  and  C_30 
REMARK   11  A    between atoms: C_33  and  C_34 
REMARK   12  A    between atoms: C_34  and  C_35 
ROOT
HETATM    1  O   UNL     1       3.011  14.861  94.093  1.00  0.00    -0.350 OA
HETATM    2  N   UNL     1       2.667  14.812  91.268  1.00  0.00     0.147 N 
HETATM    3  C   UNL     1       1.698  14.175  92.171  1.00  0.00     0.283 C 
HETATM    4  C   UNL     1       4.003  14.808  91.880  1.00  0.00     0.283 C 
HETATM    5  C   UNL     1       1.702  14.889  93.520  1.00  0.00     0.178 C 
HETATM    6  C   UNL     1       3.953  15.506  93.236  1.00  0.00     0.178 C 
ENDROOT
BRANCH   2   7
HETATM    7  C   UNL     1       2.687  14.138  89.971  1.00  0.00     0.277 C 
BRANCH   7   8
HETATM    8  C   UNL     1       3.677  13.024  89.926  1.00  0.00     0.011 A 
HETATM    9  C   UNL     1       3.376  11.800  90.527  1.00  0.00    -0.002 A 
HETATM   10  C   UNL     1       4.302  10.758  90.487  1.00  0.00     0.008 A 
HETATM   11  C   UNL     1       5.527  10.939  89.845  1.00  0.00     0.042 A 
HETATM   12  C   UNL     1       5.828  12.160  89.245  1.00  0.00     0.008 A 
HETATM   13  C   UNL     1       4.903  13.203  89.285  1.00  0.00    -0.002 A 
BRANCH  11  14
HETATM   14  C   UNL     1       6.476   9.869  89.803  1.00  0.00    -0.059 C 
HETATM   15  C   UNL     1       7.274   8.970  89.767  1.00  0.00    -0.059 C 
BRANCH  15  16
HETATM   16  C   UNL     1       8.222   7.901  89.725  1.00  0.00     0.042 A 
HETATM   17  C   UNL     1       7.902   6.663  90.283  1.00  0.00     0.008 A 
HETATM   18  C   UNL     1       8.826   5.620  90.239  1.00  0.00     0.005 A 
HETATM   19  C   UNL     1      10.049   5.837  89.640  1.00  0.00     0.056 A 
HETATM   20  C   UNL     1      10.390   7.051  89.081  1.00  0.00     0.005 A 
HETATM   21  C   UNL     1       9.466   8.095  89.124  1.00  0.00     0.008 A 
BRANCH  19  22
HETATM   22  C   UNL     1      11.034   4.725  89.595  1.00  0.00     0.254 C 
HETATM   23  O   UNL     1      11.172   4.087  88.555  1.00  0.00    -0.268 OA
HETATM   24  N   UNL     1      11.757   4.508  90.760  1.00  0.00    -0.335 N 
HETATM   25  HN  UNL     1      11.607   5.092  91.574  1.00  0.00     0.164 HD
BRANCH  24  26
HETATM   26  C   UNL     1      12.766   3.484  90.866  1.00  0.00     0.166 C 
BRANCH  26  27
HETATM   27  C   UNL     1      14.165   4.054  91.134  1.00  0.00     0.138 C 
HETATM   28  C   UNL     1      15.275   3.099  90.709  1.00  0.00     0.034 C 
BRANCH  27  29
HETATM   29  O   UNL     1      14.320   5.287  90.431  1.00  0.00    -0.383 OA
HETATM   30  H   UNL     1      14.699   5.094  89.557  1.00  0.00     0.210 HD
ENDBRANCH  27  29
ENDBRANCH  26  27
BRANCH  26  31
HETATM   31  C   UNL     1      12.339   2.522  91.971  1.00  0.00     0.181 C 
HETATM   32  O   UNL     1      12.863   1.423  92.142  1.00  0.00    -0.294 OA
BRANCH  31  33
HETATM   33  C   UNL     1      12.317   3.244  93.422  1.00  0.00     0.138 C 
BRANCH  33  34
HETATM   34  C   UNL     1      11.116   3.983  93.342  1.00  0.00     0.208 C 
HETATM   35  O   UNL     1      10.186   3.431  92.800  1.00  0.00    -0.289 OA
BRANCH  34  36
HETATM   36  C   UNL     1      10.717   5.104  94.016  1.00  0.00     0.194 C 
HETATM   37  O   UNL     1      10.219   6.320  93.535  1.00  0.00    -0.185 OA
ENDBRANCH  34  36
ENDBRANCH  33  34
ENDBRANCH  31  33
ENDBRANCH  26  31
ENDBRANCH  24  26
ENDBRANCH  19  22
ENDBRANCH  15  16
ENDBRANCH  11  14
ENDBRANCH   7   8
ENDBRANCH   2   7
TORSDOF 12
ENDMDL
MODEL 4
REMARK VINA RESULT:      -4.4      1.604      2.163
REMARK  12 active torsions:
REMARK  status: ('A' for Active; 'I' for Inactive)
REMARK    1  A    between atoms: O_2  and  C_16 
REMARK    2  A    between atoms: N_5  and  C_9 
REMARK    3  A    between atoms: N_6  and  C_13 
REMARK       I    between atoms: N_6  and  C_22 
REMARK    4  A    between atoms: C_9  and  C_12 
REMARK    5  A    between atoms: C_13  and  C_16 
REMARK    6  A    between atoms: C_13  and  C_21 
REMARK    7  A    between atoms: C_19  and  C_24 
REMARK    8  A    between atoms: C_21  and  C_33 
REMARK    9  A    between atoms: C_22  and  C_23 
REMARK   10  A    between atoms: C_27  and  C_30 
REMARK   11  A    between atoms: C_33  and  C_34 
REMARK   12  A    between atoms: C_34  and  C_35 
ROOT
HETATM    1  O   UNL     1      15.634   4.787  92.366  1.00  0.00    -0.350 OA
HETATM    2  N   UNL     1      13.586   2.818  92.198  1.00  0.00     0.147 N 
HETATM    3  C   UNL     1      13.450   4.124  91.540  1.00  0.00     0.283 C 
HETATM    4  C   UNL     1      14.440   2.939  93.388  1.00  0.00     0.283 C 
HETATM    5  C   UNL     1      14.832   4.672  91.190  1.00  0.00     0.178 C 
HETATM    6  C   UNL     1      15.797   3.515  92.995  1.00  0.00     0.178 C 
ENDROOT
BRANCH   2   7
HETATM    7  C   UNL     1      12.274   2.278  92.553  1.00  0.00     0.277 C 
BRANCH   7   8
HETATM    8  C   UNL     1      11.223   3.334  92.612  1.00  0.00     0.011 A 
HETATM    9  C   UNL     1      10.196   3.346  91.668  1.00  0.00    -0.002 A 
HETATM   10  C   UNL     1       9.213   4.335  91.720  1.00  0.00     0.008 A 
HETATM   11  C   UNL     1       9.257   5.308  92.718  1.00  0.00     0.042 A 
HETATM   12  C   UNL     1      10.282   5.296  93.661  1.00  0.00     0.008 A 
HETATM   13  C   UNL     1      11.266   4.309  93.609  1.00  0.00    -0.002 A 
BRANCH  11  14
HETATM   14  C   UNL     1       8.247   6.320  92.773  1.00  0.00    -0.059 C 
HETATM   15  C   UNL     1       7.399   7.171  92.820  1.00  0.00    -0.059 C 
BRANCH  15  16
HETATM   16  C   UNL     1       6.391   8.183  92.876  1.00  0.00     0.042 A 
HETATM   17  C   UNL     1       5.152   7.966  92.272  1.00  0.00     0.008 A 
HETATM   18  C   UNL     1       4.167   8.952  92.329  1.00  0.00     0.005 A 
HETATM   19  C   UNL     1       4.443  10.132  92.988  1.00  0.00     0.056 A 
HETATM   20  C   UNL     1       5.659  10.371  93.592  1.00  0.00     0.005 A 
HETATM   21  C   UNL     1       6.645   9.385  93.536  1.00  0.00     0.008 A 
BRANCH  19  22
HETATM   22  C   UNL     1       3.394  11.184  93.046  1.00  0.00     0.254 C 
HETATM   23  O   UNL     1       2.358  10.963  93.668  1.00  0.00    -0.268 OA
HETATM   24  N   UNL     1       3.689  12.373  92.395  1.00  0.00    -0.335 N 
HETATM   25  HN  UNL     1       4.578  12.492  91.922  1.00  0.00     0.164 HD
BRANCH  24  26
HETATM   26  C   UNL     1       2.785  13.495  92.382  1.00  0.00     0.166 C 
BRANCH  26  27
HETATM   27  C   UNL     1       3.045  14.480  93.529  1.00  0.00     0.138 C 
HETATM   28  C   UNL     1       4.499  14.936  93.588  1.00  0.00     0.034 C 
BRANCH  27  29
HETATM   29  O   UNL     1       2.206  15.625  93.374  1.00  0.00    -0.383 OA
HETATM   30  H   UNL     1       1.508  15.584  94.049  1.00  0.00     0.210 HD
ENDBRANCH  27  29
ENDBRANCH  26  27
BRANCH  26  31
HETATM   31  C   UNL     1       2.910  14.179  91.025  1.00  0.00     0.181 C 
HETATM   32  O   UNL     1       3.855  14.907  90.726  1.00  0.00    -0.294 OA
BRANCH  31  33
HETATM   33  C   UNL     1       2.747  13.126  89.803  1.00  0.00     0.138 C 
BRANCH  33  34
HETATM   34  C   UNL     1       4.095  12.935  89.424  1.00  0.00     0.208 C 
HETATM   35  O   UNL     1       4.553  11.834  89.626  1.00  0.00    -0.289 OA
BRANCH  34  36
HETATM   36  C   UNL     1       4.901  13.680  88.608  1.00  0.00     0.194 C 
HETATM   37  O   UNL     1       5.317  13.449  87.292  1.00  0.00    -0.185 OA
ENDBRANCH  34  36
ENDBRANCH  33  34
ENDBRANCH  31  33
ENDBRANCH  26  31
ENDBRANCH  24  26
ENDBRANCH  19  22
ENDBRANCH  15  16
ENDBRANCH  11  14
ENDBRANCH   7   8
ENDBRANCH   2   7
TORSDOF 12
ENDMDL
MODEL 5
REMARK VINA RESULT:      -3.7      2.522     12.806
REMARK  12 active torsions:
REMARK  status: ('A' for Active; 'I' for Inactive)
REMARK    1  A    between atoms: O_2  and  C_16 
REMARK    2  A    between atoms: N_5  and  C_9 
REMARK    3  A    between atoms: N_6  and  C_13 
REMARK       I    between atoms: N_6  and  C_22 
REMARK    4  A    between atoms: C_9  and  C_12 
REMARK    5  A    between atoms: C_13  and  C_16 
REMARK    6  A    between atoms: C_13  and  C_21 
REMARK    7  A    between atoms: C_19  and  C_24 
REMARK    8  A    between atoms: C_21  and  C_33 
REMARK    9  A    between atoms: C_22  and  C_23 
REMARK   10  A    between atoms: C_27  and  C_30 
REMARK   11  A    between atoms: C_33  and  C_34 
REMARK   12  A    between atoms: C_34  and  C_35 
ROOT
HETATM    1  O   UNL     1       3.319  15.613  93.717  1.00  0.00    -0.350 OA
HETATM    2  N   UNL     1       1.767  13.443  92.726  1.00  0.00     0.147 N 
HETATM    3  C   UNL     1       1.524  14.015  94.057  1.00  0.00     0.283 C 
HETATM    4  C   UNL     1       3.180  13.610  92.356  1.00  0.00     0.283 C 
HETATM    5  C   UNL     1       1.941  15.484  94.072  1.00  0.00     0.178 C 
HETATM    6  C   UNL     1       3.558  15.087  92.412  1.00  0.00     0.178 C 
ENDROOT
BRANCH   2   7
HETATM    7  C   UNL     1       1.385  12.032  92.692  1.00  0.00     0.277 C 
BRANCH   7   8
HETATM    8  C   UNL     1       2.543  11.136  92.413  1.00  0.00     0.011 A 
HETATM    9  C   UNL     1       2.641  10.488  91.180  1.00  0.00    -0.002 A 
HETATM   10  C   UNL     1       3.723   9.648  90.919  1.00  0.00     0.008 A 
HETATM   11  C   UNL     1       4.707   9.458  91.889  1.00  0.00     0.042 A 
HETATM   12  C   UNL     1       4.610  10.104  93.119  1.00  0.00     0.008 A 
HETATM   13  C   UNL     1       3.528  10.944  93.381  1.00  0.00    -0.002 A 
BRANCH  11  14
HETATM   14  C   UNL     1       5.818   8.597  91.619  1.00  0.00    -0.059 C 
HETATM   15  C   UNL     1       6.752   7.875  91.393  1.00  0.00    -0.059 C 
BRANCH  15  16
HETATM   16  C   UNL     1       7.863   7.015  91.125  1.00  0.00     0.042 A 
HETATM   17  C   UNL     1       9.165   7.499  91.254  1.00  0.00     0.008 A 
HETATM   18  C   UNL     1      10.248   6.659  90.995  1.00  0.00     0.005 A 
HETATM   19  C   UNL     1      10.005   5.355  90.614  1.00  0.00     0.056 A 
HETATM   20  C   UNL     1       8.727   4.854  90.479  1.00  0.00     0.005 A 
HETATM   21  C   UNL     1       7.644   5.693  90.738  1.00  0.00     0.008 A 
BRANCH  19  22
HETATM   22  C   UNL     1      11.159   4.462  90.336  1.00  0.00     0.254 C 
HETATM   23  O   UNL     1      11.455   4.209  89.171  1.00  0.00    -0.268 OA
HETATM   24  N   UNL     1      11.845   3.991  91.447  1.00  0.00    -0.335 N 
HETATM   25  HN  UNL     1      11.558   4.263  92.380  1.00  0.00     0.164 HD
BRANCH  24  26
HETATM   26  C   UNL     1      12.999   3.135  91.341  1.00  0.00     0.166 C 
BRANCH  26  27
HETATM   27  C   UNL     1      14.257   3.889  90.890  1.00  0.00     0.138 C 
HETATM   28  C   UNL     1      15.059   3.116  89.849  1.00  0.00     0.034 C 
BRANCH  27  29
HETATM   29  O   UNL     1      13.886   5.154  90.344  1.00  0.00    -0.383 OA
HETATM   30  H   UNL     1      13.519   5.007  89.456  1.00  0.00     0.210 HD
ENDBRANCH  27  29
ENDBRANCH  26  27
BRANCH  26  31
HETATM   31  C   UNL     1      13.209   2.466  92.695  1.00  0.00     0.181 C 
HETATM   32  O   UNL     1      14.029   1.568  92.879  1.00  0.00    -0.294 OA
BRANCH  31  33
HETATM   33  C   UNL     1      13.458   3.553  93.872  1.00  0.00     0.138 C 
BRANCH  33  34
HETATM   34  C   UNL     1      14.863   3.694  93.821  1.00  0.00     0.208 C 
HETATM   35  O   UNL     1      15.281   4.827  93.748  1.00  0.00    -0.289 OA
BRANCH  34  36
HETATM   36  C   UNL     1      15.856   2.804  94.124  1.00  0.00     0.194 C 
HETATM   37  O   UNL     1      17.247   2.942  94.054  1.00  0.00    -0.185 OA
ENDBRANCH  34  36
ENDBRANCH  33  34
ENDBRANCH  31  33
ENDBRANCH  26  31
ENDBRANCH  24  26
ENDBRANCH  19  22
ENDBRANCH  15  16
ENDBRANCH  11  14
ENDBRANCH   7   8
ENDBRANCH   2   7
TORSDOF 12
ENDMDL
