MODEL 1
REMARK VINA RESULT:      -7.5      0.000      0.000
REMARK  9 active torsions:
REMARK  status: ('A' for Active; 'I' for Inactive)
REMARK    1  A    between atoms: N_3  and  C_6 
REMARK    2  A    between atoms: C_6  and  C_9 
REMARK    3  A    between atoms: C_14  and  C_17 
REMARK       I    between atoms: N_26  and  C_15 
REMARK    4  A    between atoms: C_15  and  C_16 
REMARK    5  A    between atoms: C_20  and  C_23 
REMARK    6  A    between atoms: OG1_24  and  CB_28 
REMARK    7  A    between atoms: N_26  and  CA_27 
REMARK    8  A    between atoms: CA_27  and  CB_28 
REMARK    9  A    between atoms: CA_27  and  C_30 
ROOT
HETATM    1  O   UNK A   0       1.913   8.133  87.800  1.00  0.00    -0.388 OA
HETATM    2  N   UNK A   0       4.707   7.610  87.660  1.00  0.00     0.096 N 
HETATM    3  C   UNK A   0       4.187   8.981  87.751  1.00  0.00     0.299 C 
HETATM    4  C   UNK A   0       3.728   6.743  86.990  1.00  0.00     0.299 C 
HETATM    5  C   UNK A   0       2.845   8.977  88.480  1.00  0.00     0.198 C 
HETATM    6  C   UNK A   0       2.398   6.792  87.734  1.00  0.00     0.198 C 
ENDROOT
BRANCH   2   7
HETATM    7  C   UNK A   0       5.988   7.588  86.956  1.00  0.00     0.311 C 
BRANCH   7   8
HETATM    8  C   UNK A   0       7.075   6.974  87.772  1.00  0.00    -0.030 A 
HETATM    9  C   UNK A   0       6.885   6.763  89.138  1.00  0.00     0.010 A 
HETATM   10  C   UNK A   0       7.901   6.190  89.903  1.00  0.00     0.021 A 
HETATM   11  C   UNK A   0       9.106   5.828  89.300  1.00  0.00     0.018 A 
HETATM   12  C   UNK A   0       9.296   6.038  87.936  1.00  0.00     0.021 A 
HETATM   13  C   UNK A   0       8.280   6.611  87.171  1.00  0.00     0.010 A 
BRANCH  11  14
HETATM   14  C   UNK A   0      10.147   5.239  90.085  1.00  0.00    -0.061 C 
HETATM   15  C   UNK A   0      11.023   4.744  90.743  1.00  0.00    -0.061 C 
BRANCH  15  16
HETATM   16  C   UNK A   0      12.065   4.156  91.526  1.00  0.00     0.018 A 
HETATM   17  C   UNK A   0      11.815   3.779  92.846  1.00  0.00     0.022 A 
HETATM   18  C   UNK A   0      12.831   3.203  93.609  1.00  0.00     0.018 A 
HETATM   19  C   UNK A   0      14.071   3.016  93.036  1.00  0.00     0.032 A 
HETATM   20  C   UNK A   0      14.343   3.381  91.734  1.00  0.00     0.018 A 
HETATM   21  C   UNK A   0      13.328   3.957  90.970  1.00  0.00     0.022 A 
BRANCH  19  22
HETATM   22  C   UNK A   0      15.153   2.404  93.850  1.00  0.00     0.252 C 
HETATM   23  O   UNK A   0      16.305   2.812  93.721  1.00  0.00    -0.268 OA
ENDBRANCH  19  22
ENDBRANCH  15  16
ENDBRANCH  11  14
ENDBRANCH   7   8
ENDBRANCH   2   7
TORSDOF 9
ENDMDL
MODEL 2
REMARK VINA RESULT:      -7.5      0.183      1.022
REMARK  9 active torsions:
REMARK  status: ('A' for Active; 'I' for Inactive)
REMARK    1  A    between atoms: N_3  and  C_6 
REMARK    2  A    between atoms: C_6  and  C_9 
REMARK    3  A    between atoms: C_14  and  C_17 
REMARK       I    between atoms: N_26  and  C_15 
REMARK    4  A    between atoms: C_15  and  C_16 
REMARK    5  A    between atoms: C_20  and  C_23 
REMARK    6  A    between atoms: OG1_24  and  CB_28 
REMARK    7  A    between atoms: N_26  and  CA_27 
REMARK    8  A    between atoms: CA_27  and  CB_28 
REMARK    9  A    between atoms: CA_27  and  C_30 
ROOT
HETATM    1  O   UNK A   0       1.714   7.921  87.915  1.00  0.00    -0.388 OA
HETATM    2  N   UNK A   0       4.531   7.538  87.768  1.00  0.00     0.096 N 
HETATM    3  C   UNK A   0       3.943   8.880  87.885  1.00  0.00     0.299 C 
HETATM    4  C   UNK A   0       3.596   6.637  87.081  1.00  0.00     0.299 C 
HETATM    5  C   UNK A   0       2.603   8.796  88.611  1.00  0.00     0.198 C 
HETATM    6  C   UNK A   0       2.265   6.606  87.825  1.00  0.00     0.198 C 
ENDROOT
BRANCH   2   7
HETATM    7  C   UNK A   0       5.811   7.594  87.065  1.00  0.00     0.311 C 
BRANCH   7   8
HETATM    8  C   UNK A   0       6.920   6.986  87.856  1.00  0.00    -0.030 A 
HETATM    9  C   UNK A   0       8.149   6.728  87.247  1.00  0.00     0.010 A 
HETATM   10  C   UNK A   0       9.186   6.157  87.985  1.00  0.00     0.021 A 
HETATM   11  C   UNK A   0       8.994   5.847  89.331  1.00  0.00     0.018 A 
HETATM   12  C   UNK A   0       7.767   6.104  89.940  1.00  0.00     0.021 A 
HETATM   13  C   UNK A   0       6.730   6.674  89.202  1.00  0.00     0.010 A 
BRANCH  11  14
HETATM   14  C   UNK A   0      10.058   5.263  90.088  1.00  0.00    -0.061 C 
HETATM   15  C   UNK A   0      10.953   4.772  90.724  1.00  0.00    -0.061 C 
BRANCH  15  16
HETATM   16  C   UNK A   0      12.017   4.189  91.480  1.00  0.00     0.018 A 
HETATM   17  C   UNK A   0      11.805   3.815  92.808  1.00  0.00     0.022 A 
HETATM   18  C   UNK A   0      12.843   3.244  93.544  1.00  0.00     0.018 A 
HETATM   19  C   UNK A   0      14.067   3.059  92.937  1.00  0.00     0.032 A 
HETATM   20  C   UNK A   0      14.302   3.420  91.627  1.00  0.00     0.018 A 
HETATM   21  C   UNK A   0      13.265   3.992  90.890  1.00  0.00     0.022 A 
BRANCH  19  22
HETATM   22  C   UNK A   0      15.173   2.452  93.723  1.00  0.00     0.252 C 
HETATM   23  O   UNK A   0      16.321   2.858  93.556  1.00  0.00    -0.268 OA
ENDBRANCH  19  22
ENDBRANCH  15  16
ENDBRANCH  11  14
ENDBRANCH   7   8
ENDBRANCH   2   7
TORSDOF 9
ENDMDL
MODEL 3
REMARK VINA RESULT:      -7.5      0.204      1.431
REMARK  9 active torsions:
REMARK  status: ('A' for Active; 'I' for Inactive)
REMARK    1  A    between atoms: N_3  and  C_6 
REMARK    2  A    between atoms: C_6  and  C_9 
REMARK    3  A    between atoms: C_14  and  C_17 
REMARK       I    between atoms: N_26  and  C_15 
REMARK    4  A    between atoms: C_15  and  C_16 
REMARK    5  A    between atoms: C_20  and  C_23 
REMARK    6  A    between atoms: OG1_24  and  CB_28 
REMARK    7  A    between atoms: N_26  and  CA_27 
REMARK    8  A    between atoms: CA_27  and  CB_28 
REMARK    9  A    between atoms: CA_27  and  C_30 
ROOT
HETATM    1  O   UNK A   0       1.740   7.956  87.934  1.00  0.00    -0.388 OA
HETATM    2  N   UNK A   0       4.542   7.486  87.754  1.00  0.00     0.096 N 
HETATM    3  C   UNK A   0       3.996   8.847  87.847  1.00  0.00     0.299 C 
HETATM    4  C   UNK A   0       3.570   6.597  87.103  1.00  0.00     0.299 C 
HETATM    5  C   UNK A   0       2.666   8.821  88.595  1.00  0.00     0.198 C 
HETATM    6  C   UNK A   0       2.250   6.624  87.867  1.00  0.00     0.198 C 
ENDROOT
BRANCH   2   7
HETATM    7  C   UNK A   0       5.813   7.486  87.032  1.00  0.00     0.311 C 
BRANCH   7   8
HETATM    8  C   UNK A   0       6.923   6.900  87.835  1.00  0.00    -0.030 A 
HETATM    9  C   UNK A   0       8.188   6.746  87.267  1.00  0.00     0.010 A 
HETATM   10  C   UNK A   0       9.228   6.197  88.017  1.00  0.00     0.021 A 
HETATM   11  C   UNK A   0       9.002   5.804  89.336  1.00  0.00     0.018 A 
HETATM   12  C   UNK A   0       7.739   5.957  89.905  1.00  0.00     0.021 A 
HETATM   13  C   UNK A   0       6.700   6.506  89.154  1.00  0.00     0.010 A 
BRANCH  11  14
HETATM   14  C   UNK A   0      10.069   5.242  90.106  1.00  0.00    -0.061 C 
HETATM   15  C   UNK A   0      10.966   4.770  90.753  1.00  0.00    -0.061 C 
BRANCH  15  16
HETATM   16  C   UNK A   0      12.033   4.210  91.523  1.00  0.00     0.018 A 
HETATM   17  C   UNK A   0      13.244   3.894  90.907  1.00  0.00     0.022 A 
HETATM   18  C   UNK A   0      14.285   3.349  91.659  1.00  0.00     0.018 A 
HETATM   19  C   UNK A   0      14.092   3.134  93.008  1.00  0.00     0.032 A 
HETATM   20  C   UNK A   0      12.904   3.438  93.639  1.00  0.00     0.018 A 
HETATM   21  C   UNK A   0      11.862   3.982  92.888  1.00  0.00     0.022 A 
BRANCH  19  22
HETATM   22  C   UNK A   0      15.201   2.553  93.808  1.00  0.00     0.252 C 
HETATM   23  O   UNK A   0      16.355   2.913  93.585  1.00  0.00    -0.268 OA
ENDBRANCH  19  22
ENDBRANCH  15  16
ENDBRANCH  11  14
ENDBRANCH   7   8
ENDBRANCH   2   7
TORSDOF 9
ENDMDL
MODEL 4
REMARK VINA RESULT:      -6.9      1.546      2.091
REMARK  9 active torsions:
REMARK  status: ('A' for Active; 'I' for Inactive)
REMARK    1  A    between atoms: N_3  and  C_6 
REMARK    2  A    between atoms: C_6  and  C_9 
REMARK    3  A    between atoms: C_14  and  C_17 
REMARK       I    between atoms: N_26  and  C_15 
REMARK    4  A    between atoms: C_15  and  C_16 
REMARK    5  A    between atoms: C_20  and  C_23 
REMARK    6  A    between atoms: OG1_24  and  CB_28 
REMARK    7  A    between atoms: N_26  and  CA_27 
REMARK    8  A    between atoms: CA_27  and  CB_28 
REMARK    9  A    between atoms: CA_27  and  C_30 
ROOT
HETATM    1  O   UNK A   0       2.895  11.311  89.760  1.00  0.00    -0.388 OA
HETATM    2  N   UNK A   0       4.665   9.274  88.853  1.00  0.00     0.096 N 
HETATM    3  C   UNK A   0       3.901  10.104  87.910  1.00  0.00     0.299 C 
HETATM    4  C   UNK A   0       3.931   9.147  90.120  1.00  0.00     0.299 C 
HETATM    5  C   UNK A   0       3.615  11.467  88.536  1.00  0.00     0.198 C 
HETATM    6  C   UNK A   0       3.644  10.531  90.693  1.00  0.00     0.198 C 
ENDROOT
BRANCH   2   7
HETATM    7  C   UNK A   0       4.941   7.959  88.277  1.00  0.00     0.311 C 
BRANCH   7   8
HETATM    8  C   UNK A   0       6.157   7.326  88.864  1.00  0.00    -0.030 A 
HETATM    9  C   UNK A   0       7.401   7.940  88.717  1.00  0.00     0.010 A 
HETATM   10  C   UNK A   0       8.539   7.348  89.264  1.00  0.00     0.021 A 
HETATM   11  C   UNK A   0       8.432   6.144  89.960  1.00  0.00     0.018 A 
HETATM   12  C   UNK A   0       7.190   5.531  90.108  1.00  0.00     0.021 A 
HETATM   13  C   UNK A   0       6.051   6.122  89.560  1.00  0.00     0.010 A 
BRANCH  11  14
HETATM   14  C   UNK A   0       9.600   5.538  90.522  1.00  0.00    -0.061 C 
HETATM   15  C   UNK A   0      10.581   5.028  90.995  1.00  0.00    -0.061 C 
BRANCH  15  16
HETATM   16  C   UNK A   0      11.748   4.423  91.556  1.00  0.00     0.018 A 
HETATM   17  C   UNK A   0      11.732   3.971  92.876  1.00  0.00     0.022 A 
HETATM   18  C   UNK A   0      12.870   3.378  93.423  1.00  0.00     0.018 A 
HETATM   19  C   UNK A   0      13.997   3.250  92.639  1.00  0.00     0.032 A 
HETATM   20  C   UNK A   0      14.038   3.689  91.332  1.00  0.00     0.018 A 
HETATM   21  C   UNK A   0      12.901   4.282  90.784  1.00  0.00     0.022 A 
BRANCH  19  22
HETATM   22  C   UNK A   0      15.210   2.620  93.222  1.00  0.00     0.252 C 
HETATM   23  O   UNK A   0      15.934   3.283  93.961  1.00  0.00    -0.268 OA
ENDBRANCH  19  22
ENDBRANCH  15  16
ENDBRANCH  11  14
ENDBRANCH   7   8
ENDBRANCH   2   7
TORSDOF 9
ENDMDL
MODEL 5
REMARK VINA RESULT:      -6.6      1.400      2.016
REMARK  9 active torsions:
REMARK  status: ('A' for Active; 'I' for Inactive)
REMARK    1  A    between atoms: N_3  and  C_6 
REMARK    2  A    between atoms: C_6  and  C_9 
REMARK    3  A    between atoms: C_14  and  C_17 
REMARK       I    between atoms: N_26  and  C_15 
REMARK    4  A    between atoms: C_15  and  C_16 
REMARK    5  A    between atoms: C_20  and  C_23 
REMARK    6  A    between atoms: OG1_24  and  CB_28 
REMARK    7  A    between atoms: N_26  and  CA_27 
REMARK    8  A    between atoms: CA_27  and  CB_28 
REMARK    9  A    between atoms: CA_27  and  C_30 
ROOT
HETATM    1  O   UNK A   0       4.533  11.561  88.760  1.00  0.00    -0.388 OA
HETATM    2  N   UNK A   0       4.944   8.749  88.601  1.00  0.00     0.096 N 
HETATM    3  C   UNK A   0       6.053   9.673  88.874  1.00  0.00     0.299 C 
HETATM    4  C   UNK A   0       3.914   9.422  87.797  1.00  0.00     0.299 C 
HETATM    5  C   UNK A   0       5.524  10.925  89.569  1.00  0.00     0.198 C 
HETATM    6  C   UNK A   0       3.436  10.679  88.516  1.00  0.00     0.198 C 
ENDROOT
BRANCH   2   7
HETATM    7  C   UNK A   0       5.427   7.546  87.925  1.00  0.00     0.311 C 
BRANCH   7   8
HETATM    8  C   UNK A   0       6.606   6.944  88.610  1.00  0.00    -0.030 A 
HETATM    9  C   UNK A   0       6.493   6.492  89.925  1.00  0.00     0.010 A 
HETATM   10  C   UNK A   0       7.596   5.931  90.568  1.00  0.00     0.021 A 
HETATM   11  C   UNK A   0       8.812   5.821  89.894  1.00  0.00     0.018 A 
HETATM   12  C   UNK A   0       8.927   6.272  88.580  1.00  0.00     0.021 A 
HETATM   13  C   UNK A   0       7.824   6.833  87.938  1.00  0.00     0.010 A 
BRANCH  11  14
HETATM   14  C   UNK A   0       9.944   5.244  90.552  1.00  0.00    -0.061 C 
HETATM   15  C   UNK A   0      10.895   4.759  91.106  1.00  0.00    -0.061 C 
BRANCH  15  16
HETATM   16  C   UNK A   0      12.025   4.183  91.764  1.00  0.00     0.018 A 
HETATM   17  C   UNK A   0      13.219   4.000  91.066  1.00  0.00     0.022 A 
HETATM   18  C   UNK A   0      14.323   3.440  91.710  1.00  0.00     0.018 A 
HETATM   19  C   UNK A   0      14.208   3.077  93.036  1.00  0.00     0.032 A 
HETATM   20  C   UNK A   0      13.039   3.247  93.747  1.00  0.00     0.018 A 
HETATM   21  C   UNK A   0      11.935   3.807  93.104  1.00  0.00     0.022 A 
BRANCH  19  22
HETATM   22  C   UNK A   0      15.384   2.479  93.720  1.00  0.00     0.252 C 
HETATM   23  O   UNK A   0      16.341   3.195  94.005  1.00  0.00    -0.268 OA
ENDBRANCH  19  22
ENDBRANCH  15  16
ENDBRANCH  11  14
ENDBRANCH   7   8
ENDBRANCH   2   7
TORSDOF 9
ENDMDL
MODEL 6
REMARK VINA RESULT:      -6.6      3.922     10.412
REMARK  9 active torsions:
REMARK  status: ('A' for Active; 'I' for Inactive)
REMARK    1  A    between atoms: N_3  and  C_6 
REMARK    2  A    between atoms: C_6  and  C_9 
REMARK    3  A    between atoms: C_14  and  C_17 
REMARK       I    between atoms: N_26  and  C_15 
REMARK    4  A    between atoms: C_15  and  C_16 
REMARK    5  A    between atoms: C_20  and  C_23 
REMARK    6  A    between atoms: OG1_24  and  CB_28 
REMARK    7  A    between atoms: N_26  and  CA_27 
REMARK    8  A    between atoms: CA_27  and  CB_28 
REMARK    9  A    between atoms: CA_27  and  C_30 
ROOT
HETATM    1  O   UNK A   0      14.557   3.341  92.112  1.00  0.00    -0.388 OA
HETATM    2  N   UNK A   0      11.848   4.204  92.252  1.00  0.00     0.096 N 
HETATM    3  C   UNK A   0      12.446   3.376  93.309  1.00  0.00     0.299 C 
HETATM    4  C   UNK A   0      12.501   3.926  90.965  1.00  0.00     0.299 C 
HETATM    5  C   UNK A   0      13.951   3.627  93.373  1.00  0.00     0.198 C 
HETATM    6  C   UNK A   0      14.003   4.164  91.084  1.00  0.00     0.198 C 
ENDROOT
BRANCH   2   7
HETATM    7  C   UNK A   0      10.408   3.971  92.165  1.00  0.00     0.311 C 
BRANCH   7   8
HETATM    8  C   UNK A   0       9.648   5.217  91.861  1.00  0.00    -0.030 A 
HETATM    9  C   UNK A   0       9.844   6.360  92.639  1.00  0.00     0.010 A 
HETATM   10  C   UNK A   0       9.133   7.526  92.357  1.00  0.00     0.021 A 
HETATM   11  C   UNK A   0       8.227   7.549  91.296  1.00  0.00     0.018 A 
HETATM   12  C   UNK A   0       8.031   6.409  90.519  1.00  0.00     0.021 A 
HETATM   13  C   UNK A   0       8.742   5.243  90.802  1.00  0.00     0.010 A 
BRANCH  11  14
HETATM   14  C   UNK A   0       7.499   8.746  91.006  1.00  0.00    -0.061 C 
HETATM   15  C   UNK A   0       6.887   9.752  90.762  1.00  0.00    -0.061 C 
BRANCH  15  16
HETATM   16  C   UNK A   0       6.159  10.948  90.472  1.00  0.00     0.018 A 
HETATM   17  C   UNK A   0       5.272  11.469  91.415  1.00  0.00     0.022 A 
HETATM   18  C   UNK A   0       4.564  12.637  91.133  1.00  0.00     0.018 A 
HETATM   19  C   UNK A   0       4.759  13.258  89.917  1.00  0.00     0.032 A 
HETATM   20  C   UNK A   0       5.629  12.763  88.969  1.00  0.00     0.018 A 
HETATM   21  C   UNK A   0       6.337  11.594  89.249  1.00  0.00     0.022 A 
BRANCH  19  22
HETATM   22  C   UNK A   0       4.003  14.501  89.617  1.00  0.00     0.252 C 
HETATM   23  O   UNK A   0       4.576  15.585  89.696  1.00  0.00    -0.268 OA
ENDBRANCH  19  22
ENDBRANCH  15  16
ENDBRANCH  11  14
ENDBRANCH   7   8
ENDBRANCH   2   7
TORSDOF 9
ENDMDL
MODEL 7
REMARK VINA RESULT:      -6.6      3.897     10.481
REMARK  9 active torsions:
REMARK  status: ('A' for Active; 'I' for Inactive)
REMARK    1  A    between atoms: N_3  and  C_6 
REMARK    2  A    between atoms: C_6  and  C_9 
REMARK    3  A    between atoms: C_14  and  C_17 
REMARK       I    between atoms: N_26  and  C_15 
REMARK    4  A    between atoms: C_15  and  C_16 
REMARK    5  A    between atoms: C_20  and  C_23 
REMARK    6  A    between atoms: OG1_24  and  CB_28 
REMARK    7  A    between atoms: N_26  and  CA_27 
REMARK    8  A    between atoms: CA_27  and  CB_28 
REMARK    9  A    between atoms: CA_27  and  C_30 
ROOT
HETATM    1  O   UNK A   0      14.682   3.408  92.142  1.00  0.00    -0.388 OA
HETATM    2  N   UNK A   0      11.949   4.198  92.222  1.00  0.00     0.096 N 
HETATM    3  C   UNK A   0      12.529   3.335  93.259  1.00  0.00     0.299 C 
HETATM    4  C   UNK A   0      12.655   3.999  90.949  1.00  0.00     0.299 C 
HETATM    5  C   UNK A   0      14.023   3.618  93.393  1.00  0.00     0.198 C 
HETATM    6  C   UNK A   0      14.145   4.266  91.135  1.00  0.00     0.198 C 
ENDROOT
BRANCH   2   7
HETATM    7  C   UNK A   0      10.519   3.936  92.070  1.00  0.00     0.311 C 
BRANCH   7   8
HETATM    8  C   UNK A   0       9.739   5.177  91.796  1.00  0.00    -0.030 A 
HETATM    9  C   UNK A   0       8.912   5.247  90.675  1.00  0.00     0.010 A 
HETATM   10  C   UNK A   0       8.184   6.409  90.417  1.00  0.00     0.021 A 
HETATM   11  C   UNK A   0       8.282   7.498  91.282  1.00  0.00     0.018 A 
HETATM   12  C   UNK A   0       9.108   7.429  92.402  1.00  0.00     0.021 A 
HETATM   13  C   UNK A   0       9.837   6.268  92.660  1.00  0.00     0.010 A 
BRANCH  11  14
HETATM   14  C   UNK A   0       7.534   8.689  91.018  1.00  0.00    -0.061 C 
HETATM   15  C   UNK A   0       6.905   9.689  90.797  1.00  0.00    -0.061 C 
BRANCH  15  16
HETATM   16  C   UNK A   0       6.157  10.880  90.535  1.00  0.00     0.018 A 
HETATM   17  C   UNK A   0       6.304  11.539  89.314  1.00  0.00     0.022 A 
HETATM   18  C   UNK A   0       5.572  12.698  89.056  1.00  0.00     0.018 A 
HETATM   19  C   UNK A   0       4.712  13.172  90.024  1.00  0.00     0.032 A 
HETATM   20  C   UNK A   0       4.550  12.539  91.239  1.00  0.00     0.018 A 
HETATM   21  C   UNK A   0       5.281  11.380  91.497  1.00  0.00     0.022 A 
BRANCH  19  22
HETATM   22  C   UNK A   0       3.935  14.409  89.750  1.00  0.00     0.252 C 
HETATM   23  O   UNK A   0       4.517  15.490  89.728  1.00  0.00    -0.268 OA
ENDBRANCH  19  22
ENDBRANCH  15  16
ENDBRANCH  11  14
ENDBRANCH   7   8
ENDBRANCH   2   7
TORSDOF 9
ENDMDL
MODEL 8
REMARK VINA RESULT:      -6.3      1.829      2.488
REMARK  9 active torsions:
REMARK  status: ('A' for Active; 'I' for Inactive)
REMARK    1  A    between atoms: N_3  and  C_6 
REMARK    2  A    between atoms: C_6  and  C_9 
REMARK    3  A    between atoms: C_14  and  C_17 
REMARK       I    between atoms: N_26  and  C_15 
REMARK    4  A    between atoms: C_15  and  C_16 
REMARK    5  A    between atoms: C_20  and  C_23 
REMARK    6  A    between atoms: OG1_24  and  CB_28 
REMARK    7  A    between atoms: N_26  and  CA_27 
REMARK    8  A    between atoms: CA_27  and  CB_28 
REMARK    9  A    between atoms: CA_27  and  C_30 
ROOT
HETATM    1  O   UNK A   0       2.539   9.575  87.809  1.00  0.00    -0.388 OA
HETATM    2  N   UNK A   0       3.994   8.130  89.782  1.00  0.00     0.096 N 
HETATM    3  C   UNK A   0       2.751   7.600  89.204  1.00  0.00     0.299 C 
HETATM    4  C   UNK A   0       3.971   9.599  89.766  1.00  0.00     0.299 C 
HETATM    5  C   UNK A   0       2.565   8.147  87.790  1.00  0.00     0.198 C 
HETATM    6  C   UNK A   0       3.756  10.098  88.341  1.00  0.00     0.198 C 
ENDROOT
BRANCH   2   7
HETATM    7  C   UNK A   0       4.187   7.627  91.142  1.00  0.00     0.311 C 
BRANCH   7   8
HETATM    8  C   UNK A   0       5.538   7.028  91.339  1.00  0.00    -0.030 A 
HETATM    9  C   UNK A   0       6.203   7.195  92.554  1.00  0.00     0.010 A 
HETATM   10  C   UNK A   0       7.468   6.637  92.739  1.00  0.00     0.021 A 
HETATM   11  C   UNK A   0       8.065   5.909  91.710  1.00  0.00     0.018 A 
HETATM   12  C   UNK A   0       7.401   5.741  90.497  1.00  0.00     0.021 A 
HETATM   13  C   UNK A   0       6.137   6.300  90.311  1.00  0.00     0.010 A 
BRANCH  11  14
HETATM   14  C   UNK A   0       9.361   5.334  91.901  1.00  0.00    -0.061 C 
HETATM   15  C   UNK A   0      10.450   4.851  92.062  1.00  0.00    -0.061 C 
BRANCH  15  16
HETATM   16  C   UNK A   0      11.745   4.276  92.253  1.00  0.00     0.018 A 
HETATM   17  C   UNK A   0      12.085   3.717  93.485  1.00  0.00     0.022 A 
HETATM   18  C   UNK A   0      13.347   3.153  93.670  1.00  0.00     0.018 A 
HETATM   19  C   UNK A   0      14.241   3.161  92.620  1.00  0.00     0.032 A 
HETATM   20  C   UNK A   0      13.930   3.707  91.392  1.00  0.00     0.018 A 
HETATM   21  C   UNK A   0      12.667   4.271  91.206  1.00  0.00     0.022 A 
BRANCH  19  22
HETATM   22  C   UNK A   0      15.586   2.562  92.818  1.00  0.00     0.252 C 
HETATM   23  O   UNK A   0      16.252   2.892  93.796  1.00  0.00    -0.268 OA
ENDBRANCH  19  22
ENDBRANCH  15  16
ENDBRANCH  11  14
ENDBRANCH   7   8
ENDBRANCH   2   7
TORSDOF 9
ENDMDL
MODEL 9
REMARK VINA RESULT:      -6.3      1.608      2.149
REMARK  9 active torsions:
REMARK  status: ('A' for Active; 'I' for Inactive)
REMARK    1  A    between atoms: N_3  and  C_6 
REMARK    2  A    between atoms: C_6  and  C_9 
REMARK    3  A    between atoms: C_14  and  C_17 
REMARK       I    between atoms: N_26  and  C_15 
REMARK    4  A    between atoms: C_15  and  C_16 
REMARK    5  A    between atoms: C_20  and  C_23 
REMARK    6  A    between atoms: OG1_24  and  CB_28 
REMARK    7  A    between atoms: N_26  and  CA_27 
REMARK    8  A    between atoms: CA_27  and  CB_28 
REMARK    9  A    between atoms: CA_27  and  C_30 
ROOT
HETATM    1  O   UNK A   0       4.071   6.906  86.667  1.00  0.00    -0.388 OA
HETATM    2  N   UNK A   0       4.550   8.517  88.964  1.00  0.00     0.096 N 
HETATM    3  C   UNK A   0       5.654   8.016  88.133  1.00  0.00     0.299 C 
HETATM    4  C   UNK A   0       3.410   7.591  88.898  1.00  0.00     0.299 C 
HETATM    5  C   UNK A   0       5.172   7.816  86.699  1.00  0.00     0.198 C 
HETATM    6  C   UNK A   0       2.982   7.401  87.447  1.00  0.00     0.198 C 
ENDROOT
BRANCH   2   7
HETATM    7  C   UNK A   0       4.987   8.706  90.346  1.00  0.00     0.311 C 
BRANCH   7   8
HETATM    8  C   UNK A   0       6.229   7.943  90.658  1.00  0.00    -0.030 A 
HETATM    9  C   UNK A   0       7.445   8.616  90.787  1.00  0.00     0.010 A 
HETATM   10  C   UNK A   0       8.609   7.903  91.077  1.00  0.00     0.021 A 
HETATM   11  C   UNK A   0       8.555   6.519  91.241  1.00  0.00     0.018 A 
HETATM   12  C   UNK A   0       7.341   5.847  91.113  1.00  0.00     0.021 A 
HETATM   13  C   UNK A   0       6.177   6.559  90.822  1.00  0.00     0.010 A 
BRANCH  11  14
HETATM   14  C   UNK A   0       9.748   5.789  91.541  1.00  0.00    -0.061 C 
HETATM   15  C   UNK A   0      10.750   5.175  91.793  1.00  0.00    -0.061 C 
BRANCH  15  16
HETATM   16  C   UNK A   0      11.942   4.444  92.094  1.00  0.00     0.018 A 
HETATM   17  C   UNK A   0      12.108   3.871  93.355  1.00  0.00     0.022 A 
HETATM   18  C   UNK A   0      13.270   3.156  93.647  1.00  0.00     0.018 A 
HETATM   19  C   UNK A   0      14.238   3.030  92.672  1.00  0.00     0.032 A 
HETATM   20  C   UNK A   0      14.097   3.588  91.419  1.00  0.00     0.018 A 
HETATM   21  C   UNK A   0      12.936   4.303  91.126  1.00  0.00     0.022 A 
BRANCH  19  22
HETATM   22  C   UNK A   0      15.476   2.270  92.984  1.00  0.00     0.252 C 
HETATM   23  O   UNK A   0      16.189   2.641  93.914  1.00  0.00    -0.268 OA
ENDBRANCH  19  22
ENDBRANCH  15  16
ENDBRANCH  11  14
ENDBRANCH   7   8
ENDBRANCH   2   7
TORSDOF 9
ENDMDL
