MODEL 1
REMARK VINA RESULT:      -7.0      0.000      0.000
REMARK  10 active torsions:
REMARK  status: ('A' for Active; 'I' for Inactive)
REMARK    1  A    between atoms: O_2  and  C_16 
REMARK    2  A    between atoms: N_5  and  C_9 
REMARK    3  A    between atoms: N_6  and  C_13 
REMARK       I    between atoms: N_6  and  C_22 
REMARK    4  A    between atoms: C_9  and  C_12 
REMARK    5  A    between atoms: C_13  and  C_16 
REMARK    6  A    between atoms: C_13  and  C_21 
REMARK    7  A    between atoms: C_19  and  C_24 
REMARK    8  A    between atoms: C_22  and  C_23 
REMARK    9  A    between atoms: C_27  and  C_30 
REMARK   10  A    between atoms: N_33  and  S_34 
ROOT
HETATM    1  C   UNL     1       5.406  10.207  89.452  1.00  0.00     0.056 A 
HETATM    2  C   UNL     1       5.336   8.996  88.795  1.00  0.00     0.005 A 
HETATM    3  C   UNL     1       6.375  10.477  90.395  1.00  0.00     0.005 A 
HETATM    4  C   UNL     1       7.266   8.260  90.046  1.00  0.00     0.042 A 
HETATM    5  C   UNL     1       6.276   8.011  89.095  1.00  0.00     0.008 A 
HETATM    6  C   UNL     1       7.316   9.493  90.696  1.00  0.00     0.008 A 
ENDROOT
BRANCH   1   7
HETATM    7  C   UNL     1       4.405  11.257  89.130  1.00  0.00     0.254 C 
HETATM    8  O   UNL     1       3.913  11.292  88.005  1.00  0.00    -0.268 OA
HETATM    9  N   UNL     1       4.080  12.124  90.164  1.00  0.00    -0.337 N 
HETATM   10  HN  UNL     1       4.509  12.019  91.076  1.00  0.00     0.164 HD
BRANCH   9  11
HETATM   11  C   UNL     1       3.109  13.178  90.016  1.00  0.00     0.172 C 
BRANCH  11  12
HETATM   12  C   UNL     1       2.309  13.434  91.299  1.00  0.00     0.136 C 
HETATM   13  C   UNL     1       1.219  14.483  91.108  1.00  0.00     0.034 C 
BRANCH  12  14
HETATM   14  O   UNL     1       1.708  12.215  91.737  1.00  0.00    -0.383 OA
HETATM   15  H   UNL     1       2.370  11.713  92.242  1.00  0.00     0.210 HD
ENDBRANCH  12  14
ENDBRANCH  11  12
BRANCH  11  16
HETATM   16  C   UNL     1       3.850  14.433  89.565  1.00  0.00     0.398 A 
HETATM   17  O   UNL     1       4.775  14.410  88.755  1.00  0.00    -0.136 OA
HETATM   18  N   UNL     1       5.118  15.321  89.923  1.00  0.00     0.142 N 
HETATM   19  HN  UNL     1       5.933  15.454  89.393  1.00  0.00     0.338 HD
BRANCH  18  20
HETATM   20  S   UNL     1       4.809  15.594  91.251  1.00  0.00     0.076 SA
HETATM   21  H   UNL     1       5.039  14.733  92.037  1.00  0.00     0.136 HD
ENDBRANCH  18  20
ENDBRANCH  11  16
ENDBRANCH   9  11
ENDBRANCH   1   7
BRANCH   4  22
HETATM   22  C   UNL     1       8.229   7.249  90.356  1.00  0.00    -0.059 C 
HETATM   23  C   UNL     1       9.038   6.398  90.616  1.00  0.00    -0.059 C 
BRANCH  23  24
HETATM   24  C   UNL     1      10.001   5.386  90.926  1.00  0.00     0.042 A 
HETATM   25  C   UNL     1      10.910   4.970  89.953  1.00  0.00     0.008 A 
HETATM   26  C   UNL     1      11.848   3.983  90.254  1.00  0.00    -0.002 A 
HETATM   27  C   UNL     1      11.877   3.413  91.528  1.00  0.00     0.011 A 
HETATM   28  C   UNL     1      10.967   3.831  92.499  1.00  0.00    -0.002 A 
HETATM   29  C   UNL     1      10.029   4.818  92.198  1.00  0.00     0.008 A 
BRANCH  27  30
HETATM   30  C   UNL     1      12.881   2.359  91.849  1.00  0.00     0.277 C 
BRANCH  30  31
HETATM   31  N   UNL     1      13.859   2.805  92.840  1.00  0.00     0.147 N 
HETATM   32  C   UNL     1      14.856   1.756  93.095  1.00  0.00     0.283 C 
HETATM   33  C   UNL     1      15.872   2.248  94.123  1.00  0.00     0.178 C 
HETATM   34  O   UNL     1      16.509   3.441  93.662  1.00  0.00    -0.350 OA
HETATM   35  C   UNL     1      15.550   4.475  93.441  1.00  0.00     0.178 C 
HETATM   36  C   UNL     1      14.527   4.037  92.398  1.00  0.00     0.283 C 
ENDBRANCH  30  31
ENDBRANCH  27  30
ENDBRANCH  23  24
ENDBRANCH   4  22
TORSDOF 10
ENDMDL
