MODEL 1
REMARK VINA RESULT:      -7.0      0.000      0.000
REMARK  9 active torsions:
REMARK  status: ('A' for Active; 'I' for Inactive)
REMARK    1  A    between atoms: O_2  and  C_17 
REMARK    2  A    between atoms: N_5  and  C_10 
REMARK    3  A    between atoms: N_6  and  C_14 
REMARK       I    between atoms: N_6  and  C_23 
REMARK       I    between atoms: N_7  and  C_22 
REMARK    4  A    between atoms: C_10  and  C_13 
REMARK    5  A    between atoms: C_14  and  C_17 
REMARK    6  A    between atoms: C_14  and  C_22 
REMARK    7  A    between atoms: C_20  and  C_25 
REMARK    8  A    between atoms: C_23  and  C_24 
REMARK    9  A    between atoms: C_28  and  C_31 
ROOT
HETATM    1  O   UNL     1      16.995   3.957  93.843  1.00  0.00    -0.388 OA
HETATM    2  N   UNL     1      14.460   2.818  93.229  1.00  0.00     0.096 N 
HETATM    3  C   UNL     1      15.697   2.029  93.145  1.00  0.00     0.299 C 
HETATM    4  C   UNL     1      14.749   4.236  92.971  1.00  0.00     0.299 C 
HETATM    5  C   UNL     1      16.730   2.582  94.124  1.00  0.00     0.198 C 
HETATM    6  C   UNL     1      15.804   4.736  93.952  1.00  0.00     0.198 C 
ENDROOT
BRANCH   2   7
HETATM    7  C   UNL     1      13.459   2.313  92.291  1.00  0.00     0.311 C 
BRANCH   7   8
HETATM    8  C   UNL     1      12.447   3.346  91.928  1.00  0.00    -0.030 A 
HETATM    9  C   UNL     1      12.325   3.766  90.603  1.00  0.00     0.010 A 
HETATM   10  C   UNL     1      11.380   4.734  90.263  1.00  0.00     0.021 A 
HETATM   11  C   UNL     1      10.558   5.280  91.248  1.00  0.00     0.018 A 
HETATM   12  C   UNL     1      10.679   4.862  92.571  1.00  0.00     0.021 A 
HETATM   13  C   UNL     1      11.624   3.894  92.912  1.00  0.00     0.010 A 
BRANCH  11  14
HETATM   14  C   UNL     1       9.587   6.272  90.898  1.00  0.00    -0.061 C 
HETATM   15  C   UNL     1       8.771   7.105  90.605  1.00  0.00    -0.061 C 
BRANCH  15  16
HETATM   16  C   UNL     1       7.802   8.096  90.257  1.00  0.00     0.018 A 
HETATM   17  C   UNL     1       6.934   7.876  89.186  1.00  0.00     0.022 A 
HETATM   18  C   UNL     1       5.987   8.842  88.848  1.00  0.00     0.018 A 
HETATM   19  C   UNL     1       5.927  10.005  89.588  1.00  0.00     0.032 A 
HETATM   20  C   UNL     1       6.773  10.246  90.650  1.00  0.00     0.018 A 
HETATM   21  C   UNL     1       7.721   9.281  90.989  1.00  0.00     0.022 A 
BRANCH  19  22
HETATM   22  C   UNL     1       4.918  11.034  89.226  1.00  0.00     0.252 C 
HETATM   23  O   UNL     1       4.045  10.757  88.408  1.00  0.00    -0.268 OA
HETATM   24  N   UNL     1       5.033  12.254  89.879  1.00  0.00    -0.342 N 
HETATM   25  H   UNL     1       5.766  12.402  90.563  1.00  0.00     0.163 HD
BRANCH  24  26
HETATM   26  C   UNL     1       4.117  13.343  89.654  1.00  0.00     0.199 C 
BRANCH  26  27
HETATM   27  C   UNL     1       3.682  14.030  90.955  1.00  0.00     0.145 C 
HETATM   28  C   UNL     1       2.181  13.918  91.200  1.00  0.00     0.042 C 
BRANCH  27  29
HETATM   29  O   UNL     1       4.376  13.448  92.058  1.00  0.00    -0.393 OA
HETATM   30  H   UNL     1       5.322  13.409  91.837  1.00  0.00     0.210 HD
ENDBRANCH  27  29
ENDBRANCH  26  27
BRANCH  26  31
HETATM   31  C   UNL     1       4.790  14.329  88.705  1.00  0.00     0.220 C 
HETATM   32  O   UNL     1       4.936  15.520  88.970  1.00  0.00    -0.278 OA
HETATM   33  N   UNL     1       5.168  13.737  87.524  1.00  0.00    -0.271 NA
HETATM   34  H   UNL     1       4.983  12.782  87.237  1.00  0.00     0.127 HD
HETATM   35  H   UNL     1       4.601  13.895  86.249  1.00  0.00     0.127 HD
ENDBRANCH  26  31
ENDBRANCH  24  26
ENDBRANCH  19  22
ENDBRANCH  15  16
ENDBRANCH  11  14
ENDBRANCH   7   8
ENDBRANCH   2   7
TORSDOF 9
ENDMDL
MODEL 2
REMARK VINA RESULT:      -6.6      1.739      2.837
REMARK  9 active torsions:
REMARK  status: ('A' for Active; 'I' for Inactive)
REMARK    1  A    between atoms: O_2  and  C_17 
REMARK    2  A    between atoms: N_5  and  C_10 
REMARK    3  A    between atoms: N_6  and  C_14 
REMARK       I    between atoms: N_6  and  C_23 
REMARK       I    between atoms: N_7  and  C_22 
REMARK    4  A    between atoms: C_10  and  C_13 
REMARK    5  A    between atoms: C_14  and  C_17 
REMARK    6  A    between atoms: C_14  and  C_22 
REMARK    7  A    between atoms: C_20  and  C_25 
REMARK    8  A    between atoms: C_23  and  C_24 
REMARK    9  A    between atoms: C_28  and  C_31 
ROOT
HETATM    1  O   UNL     1      16.262   3.948  94.071  1.00  0.00    -0.388 OA
HETATM    2  N   UNL     1      14.296   2.604  92.512  1.00  0.00     0.096 N 
HETATM    3  C   UNL     1      14.451   4.064  92.459  1.00  0.00     0.299 C 
HETATM    4  C   UNL     1      14.707   2.102  93.831  1.00  0.00     0.299 C 
HETATM    5  C   UNL     1      15.894   4.443  92.782  1.00  0.00     0.198 C 
HETATM    6  C   UNL     1      16.143   2.526  94.121  1.00  0.00     0.198 C 
ENDROOT
BRANCH   2   7
HETATM    7  C   UNL     1      12.917   2.219  92.217  1.00  0.00     0.311 C 
BRANCH   7   8
HETATM    8  C   UNL     1      11.981   3.379  92.263  1.00  0.00    -0.030 A 
HETATM    9  C   UNL     1      11.653   3.961  93.488  1.00  0.00     0.010 A 
HETATM   10  C   UNL     1      10.776   5.044  93.533  1.00  0.00     0.021 A 
HETATM   11  C   UNL     1      10.229   5.546  92.353  1.00  0.00     0.018 A 
HETATM   12  C   UNL     1      10.556   4.966  91.129  1.00  0.00     0.021 A 
HETATM   13  C   UNL     1      11.432   3.882  91.084  1.00  0.00     0.010 A 
BRANCH  11  14
HETATM   14  C   UNL     1       9.331   6.659  92.398  1.00  0.00    -0.061 C 
HETATM   15  C   UNL     1       8.577   7.595  92.438  1.00  0.00    -0.061 C 
BRANCH  15  16
HETATM   16  C   UNL     1       7.680   8.707  92.484  1.00  0.00     0.018 A 
HETATM   17  C   UNL     1       7.151   9.225  91.301  1.00  0.00     0.022 A 
HETATM   18  C   UNL     1       6.274  10.309  91.347  1.00  0.00     0.018 A 
HETATM   19  C   UNL     1       5.945  10.849  92.573  1.00  0.00     0.032 A 
HETATM   20  C   UNL     1       6.455  10.356  93.755  1.00  0.00     0.018 A 
HETATM   21  C   UNL     1       7.332   9.272  93.711  1.00  0.00     0.022 A 
BRANCH  19  22
HETATM   22  C   UNL     1       5.013  12.005  92.621  1.00  0.00     0.252 C 
HETATM   23  O   UNL     1       4.599  12.397  93.709  1.00  0.00    -0.268 OA
HETATM   24  N   UNL     1       4.693  12.580  91.398  1.00  0.00    -0.342 N 
HETATM   25  H   UNL     1       5.093  12.217  90.541  1.00  0.00     0.163 HD
BRANCH  24  26
HETATM   26  C   UNL     1       3.822  13.721  91.282  1.00  0.00     0.199 C 
BRANCH  26  27
HETATM   27  C   UNL     1       3.965  14.442  89.936  1.00  0.00     0.145 C 
HETATM   28  C   UNL     1       4.925  15.624  90.005  1.00  0.00     0.042 C 
BRANCH  27  29
HETATM   29  O   UNL     1       4.432  13.523  88.949  1.00  0.00    -0.393 OA
HETATM   30  H   UNL     1       5.225  13.900  88.532  1.00  0.00     0.210 HD
ENDBRANCH  27  29
ENDBRANCH  26  27
BRANCH  26  31
HETATM   31  C   UNL     1       2.392  13.240  91.505  1.00  0.00     0.220 C 
HETATM   32  O   UNL     1       2.007  12.116  91.191  1.00  0.00    -0.278 OA
HETATM   33  N   UNL     1       1.596  14.216  92.053  1.00  0.00    -0.271 NA
HETATM   34  H   UNL     1       1.856  15.178  92.241  1.00  0.00     0.127 HD
HETATM   35  H   UNL     1       0.566  14.947  91.441  1.00  0.00     0.127 HD
ENDBRANCH  26  31
ENDBRANCH  24  26
ENDBRANCH  19  22
ENDBRANCH  15  16
ENDBRANCH  11  14
ENDBRANCH   7   8
ENDBRANCH   2   7
TORSDOF 9
ENDMDL
MODEL 3
REMARK VINA RESULT:      -6.6      1.879      3.019
REMARK  9 active torsions:
REMARK  status: ('A' for Active; 'I' for Inactive)
REMARK    1  A    between atoms: O_2  and  C_17 
REMARK    2  A    between atoms: N_5  and  C_10 
REMARK    3  A    between atoms: N_6  and  C_14 
REMARK       I    between atoms: N_6  and  C_23 
REMARK       I    between atoms: N_7  and  C_22 
REMARK    4  A    between atoms: C_10  and  C_13 
REMARK    5  A    between atoms: C_14  and  C_17 
REMARK    6  A    between atoms: C_14  and  C_22 
REMARK    7  A    between atoms: C_20  and  C_25 
REMARK    8  A    between atoms: C_23  and  C_24 
REMARK    9  A    between atoms: C_28  and  C_31 
ROOT
HETATM    1  O   UNL     1      16.712   3.100  93.561  1.00  0.00    -0.388 OA
HETATM    2  N   UNL     1      13.890   2.948  93.221  1.00  0.00     0.096 N 
HETATM    3  C   UNL     1      14.722   1.738  93.288  1.00  0.00     0.299 C 
HETATM    4  C   UNL     1      14.671   4.066  92.674  1.00  0.00     0.299 C 
HETATM    5  C   UNL     1      15.971   2.015  94.122  1.00  0.00     0.198 C 
HETATM    6  C   UNL     1      15.920   4.288  93.520  1.00  0.00     0.198 C 
ENDROOT
BRANCH   2   7
HETATM    7  C   UNL     1      12.693   2.708  92.417  1.00  0.00     0.311 C 
BRANCH   7   8
HETATM    8  C   UNL     1      11.733   3.847  92.475  1.00  0.00    -0.030 A 
HETATM    9  C   UNL     1      11.525   4.523  93.678  1.00  0.00     0.010 A 
HETATM   10  C   UNL     1      10.626   5.587  93.734  1.00  0.00     0.021 A 
HETATM   11  C   UNL     1       9.936   5.977  92.586  1.00  0.00     0.018 A 
HETATM   12  C   UNL     1      10.143   5.303  91.384  1.00  0.00     0.021 A 
HETATM   13  C   UNL     1      11.042   4.238  91.328  1.00  0.00     0.010 A 
BRANCH  11  14
HETATM   14  C   UNL     1       9.015   7.070  92.643  1.00  0.00    -0.061 C 
HETATM   15  C   UNL     1       8.241   7.989  92.691  1.00  0.00    -0.061 C 
BRANCH  15  16
HETATM   16  C   UNL     1       7.321   9.082  92.748  1.00  0.00     0.018 A 
HETATM   17  C   UNL     1       7.409  10.012  93.784  1.00  0.00     0.022 A 
HETATM   18  C   UNL     1       6.513  11.080  93.839  1.00  0.00     0.018 A 
HETATM   19  C   UNL     1       5.551  11.194  92.857  1.00  0.00     0.032 A 
HETATM   20  C   UNL     1       5.443  10.287  91.823  1.00  0.00     0.018 A 
HETATM   21  C   UNL     1       6.339   9.219  91.768  1.00  0.00     0.022 A 
BRANCH  19  22
HETATM   22  C   UNL     1       4.596  12.331  92.916  1.00  0.00     0.252 C 
HETATM   23  O   UNL     1       4.049  12.599  93.983  1.00  0.00    -0.268 OA
HETATM   24  N   UNL     1       4.411  13.032  91.733  1.00  0.00    -0.342 N 
HETATM   25  H   UNL     1       4.917  12.768  90.896  1.00  0.00     0.163 HD
BRANCH  24  26
HETATM   26  C   UNL     1       3.537  14.173  91.636  1.00  0.00     0.199 C 
BRANCH  26  27
HETATM   27  C   UNL     1       3.629  14.879  90.277  1.00  0.00     0.145 C 
HETATM   28  C   UNL     1       4.983  15.543  90.055  1.00  0.00     0.042 C 
BRANCH  27  29
HETATM   29  O   UNL     1       3.399  13.934  89.232  1.00  0.00    -0.393 OA
HETATM   30  H   UNL     1       4.181  13.361  89.162  1.00  0.00     0.210 HD
ENDBRANCH  27  29
ENDBRANCH  26  27
BRANCH  26  31
HETATM   31  C   UNL     1       2.116  13.696  91.918  1.00  0.00     0.220 C 
HETATM   32  O   UNL     1       1.275  14.392  92.485  1.00  0.00    -0.278 OA
HETATM   33  N   UNL     1       1.910  12.403  91.501  1.00  0.00    -0.271 NA
HETATM   34  H   UNL     1       2.603  11.773  91.113  1.00  0.00     0.127 HD
HETATM   35  H   UNL     1       1.760  11.248  92.285  1.00  0.00     0.127 HD
ENDBRANCH  26  31
ENDBRANCH  24  26
ENDBRANCH  19  22
ENDBRANCH  15  16
ENDBRANCH  11  14
ENDBRANCH   7   8
ENDBRANCH   2   7
TORSDOF 9
ENDMDL
MODEL 4
REMARK VINA RESULT:      -6.4      1.630      2.027
REMARK  9 active torsions:
REMARK  status: ('A' for Active; 'I' for Inactive)
REMARK    1  A    between atoms: O_2  and  C_17 
REMARK    2  A    between atoms: N_5  and  C_10 
REMARK    3  A    between atoms: N_6  and  C_14 
REMARK       I    between atoms: N_6  and  C_23 
REMARK       I    between atoms: N_7  and  C_22 
REMARK    4  A    between atoms: C_10  and  C_13 
REMARK    5  A    between atoms: C_14  and  C_17 
REMARK    6  A    between atoms: C_14  and  C_22 
REMARK    7  A    between atoms: C_20  and  C_25 
REMARK    8  A    between atoms: C_23  and  C_24 
REMARK    9  A    between atoms: C_28  and  C_31 
ROOT
HETATM    1  O   UNL     1      16.546   3.061  93.756  1.00  0.00    -0.388 OA
HETATM    2  N   UNL     1      13.853   2.873  92.853  1.00  0.00     0.096 N 
HETATM    3  C   UNL     1      14.682   1.676  93.049  1.00  0.00     0.299 C 
HETATM    4  C   UNL     1      14.701   4.022  92.508  1.00  0.00     0.299 C 
HETATM    5  C   UNL     1      15.733   1.945  94.124  1.00  0.00     0.198 C 
HETATM    6  C   UNL     1      15.751   4.236  93.594  1.00  0.00     0.198 C 
ENDROOT
BRANCH   2   7
HETATM    7  C   UNL     1      12.846   2.642  91.820  1.00  0.00     0.311 C 
BRANCH   7   8
HETATM    8  C   UNL     1      11.790   3.694  91.810  1.00  0.00    -0.030 A 
HETATM    9  C   UNL     1      11.305   4.206  93.014  1.00  0.00     0.010 A 
HETATM   10  C   UNL     1      10.315   5.189  93.006  1.00  0.00     0.021 A 
HETATM   11  C   UNL     1       9.813   5.660  91.794  1.00  0.00     0.018 A 
HETATM   12  C   UNL     1      10.296   5.150  90.591  1.00  0.00     0.021 A 
HETATM   13  C   UNL     1      11.285   4.167  90.598  1.00  0.00     0.010 A 
BRANCH  11  14
HETATM   14  C   UNL     1       8.799   6.670  91.786  1.00  0.00    -0.061 C 
HETATM   15  C   UNL     1       7.947   7.518  91.779  1.00  0.00    -0.061 C 
BRANCH  15  16
HETATM   16  C   UNL     1       6.933   8.527  91.772  1.00  0.00     0.018 A 
HETATM   17  C   UNL     1       5.806   8.376  90.963  1.00  0.00     0.022 A 
HETATM   18  C   UNL     1       4.817   9.358  90.958  1.00  0.00     0.018 A 
HETATM   19  C   UNL     1       4.975  10.468  91.761  1.00  0.00     0.032 A 
HETATM   20  C   UNL     1       6.080  10.641  92.569  1.00  0.00     0.018 A 
HETATM   21  C   UNL     1       7.070   9.659  92.574  1.00  0.00     0.022 A 
BRANCH  19  22
HETATM   22  C   UNL     1       3.921  11.516  91.754  1.00  0.00     0.252 C 
HETATM   23  O   UNL     1       2.741  11.179  91.794  1.00  0.00    -0.268 OA
HETATM   24  N   UNL     1       4.370  12.829  91.726  1.00  0.00    -0.342 N 
HETATM   25  H   UNL     1       5.362  13.032  91.719  1.00  0.00     0.163 HD
BRANCH  24  26
HETATM   26  C   UNL     1       3.472  13.956  91.740  1.00  0.00     0.199 C 
BRANCH  26  27
HETATM   27  C   UNL     1       3.782  14.949  92.867  1.00  0.00     0.145 C 
HETATM   28  C   UNL     1       2.524  15.442  93.574  1.00  0.00     0.042 C 
BRANCH  27  29
HETATM   29  O   UNL     1       4.639  14.330  93.825  1.00  0.00    -0.393 OA
HETATM   30  H   UNL     1       4.087  13.836  94.455  1.00  0.00     0.210 HD
ENDBRANCH  27  29
ENDBRANCH  26  27
BRANCH  26  31
HETATM   31  C   UNL     1       3.546  14.628  90.373  1.00  0.00     0.220 C 
HETATM   32  O   UNL     1       4.370  15.499  90.099  1.00  0.00    -0.278 OA
HETATM   33  N   UNL     1       2.572  14.174  89.517  1.00  0.00    -0.271 NA
HETATM   34  H   UNL     1       1.825  13.526  89.737  1.00  0.00     0.127 HD
HETATM   35  H   UNL     1       1.426  14.848  89.065  1.00  0.00     0.127 HD
ENDBRANCH  26  31
ENDBRANCH  24  26
ENDBRANCH  19  22
ENDBRANCH  15  16
ENDBRANCH  11  14
ENDBRANCH   7   8
ENDBRANCH   2   7
TORSDOF 9
ENDMDL
MODEL 5
REMARK VINA RESULT:      -5.6      1.161      1.629
REMARK  9 active torsions:
REMARK  status: ('A' for Active; 'I' for Inactive)
REMARK    1  A    between atoms: O_2  and  C_17 
REMARK    2  A    between atoms: N_5  and  C_10 
REMARK    3  A    between atoms: N_6  and  C_14 
REMARK       I    between atoms: N_6  and  C_23 
REMARK       I    between atoms: N_7  and  C_22 
REMARK    4  A    between atoms: C_10  and  C_13 
REMARK    5  A    between atoms: C_14  and  C_17 
REMARK    6  A    between atoms: C_14  and  C_22 
REMARK    7  A    between atoms: C_20  and  C_25 
REMARK    8  A    between atoms: C_23  and  C_24 
REMARK    9  A    between atoms: C_28  and  C_31 
ROOT
HETATM    1  O   UNL     1      16.862   2.551  93.324  1.00  0.00    -0.388 OA
HETATM    2  N   UNL     1      14.190   2.853  92.393  1.00  0.00     0.096 N 
HETATM    3  C   UNL     1      14.492   2.698  93.823  1.00  0.00     0.299 C 
HETATM    4  C   UNL     1      15.213   2.175  91.585  1.00  0.00     0.299 C 
HETATM    5  C   UNL     1      15.890   3.235  94.117  1.00  0.00     0.198 C 
HETATM    6  C   UNL     1      16.593   2.723  91.932  1.00  0.00     0.198 C 
ENDROOT
BRANCH   2   7
HETATM    7  C   UNL     1      12.858   2.336  92.086  1.00  0.00     0.311 C 
BRANCH   7   8
HETATM    8  C   UNL     1      11.871   3.423  91.829  1.00  0.00    -0.030 A 
HETATM    9  C   UNL     1      11.849   4.065  90.590  1.00  0.00     0.010 A 
HETATM   10  C   UNL     1      10.927   5.084  90.349  1.00  0.00     0.021 A 
HETATM   11  C   UNL     1      10.027   5.459  91.347  1.00  0.00     0.018 A 
HETATM   12  C   UNL     1      10.048   4.818  92.584  1.00  0.00     0.021 A 
HETATM   13  C   UNL     1      10.970   3.800  92.825  1.00  0.00     0.010 A 
BRANCH  11  14
HETATM   14  C   UNL     1       9.081   6.503  91.099  1.00  0.00    -0.061 C 
HETATM   15  C   UNL     1       8.285   7.380  90.891  1.00  0.00    -0.061 C 
BRANCH  15  16
HETATM   16  C   UNL     1       7.339   8.423  90.644  1.00  0.00     0.018 A 
HETATM   17  C   UNL     1       7.203   9.470  91.556  1.00  0.00     0.022 A 
HETATM   18  C   UNL     1       6.282  10.489  91.313  1.00  0.00     0.018 A 
HETATM   19  C   UNL     1       5.519  10.439  90.166  1.00  0.00     0.032 A 
HETATM   20  C   UNL     1       5.635   9.415  89.249  1.00  0.00     0.018 A 
HETATM   21  C   UNL     1       6.555   8.395  89.491  1.00  0.00     0.022 A 
BRANCH  19  22
HETATM   22  C   UNL     1       4.537  11.524  89.909  1.00  0.00     0.252 C 
HETATM   23  O   UNL     1       3.753  11.414  88.969  1.00  0.00    -0.268 OA
HETATM   24  N   UNL     1       4.570  12.595  90.791  1.00  0.00    -0.342 N 
HETATM   25  H   UNL     1       5.230  12.607  91.560  1.00  0.00     0.163 HD
BRANCH  24  26
HETATM   26  C   UNL     1       3.666  13.712  90.688  1.00  0.00     0.199 C 
BRANCH  26  27
HETATM   27  C   UNL     1       2.885  13.965  91.984  1.00  0.00     0.145 C 
HETATM   28  C   UNL     1       1.555  13.220  92.019  1.00  0.00     0.042 C 
BRANCH  27  29
HETATM   29  O   UNL     1       3.672  13.558  93.103  1.00  0.00    -0.393 OA
HETATM   30  H   UNL     1       3.273  13.930  93.908  1.00  0.00     0.210 HD
ENDBRANCH  27  29
ENDBRANCH  26  27
BRANCH  26  31
HETATM   31  C   UNL     1       4.481  14.937  90.285  1.00  0.00     0.220 C 
HETATM   32  O   UNL     1       4.704  15.237  89.114  1.00  0.00    -0.278 OA
HETATM   33  N   UNL     1       4.958  15.625  91.375  1.00  0.00    -0.271 NA
HETATM   34  H   UNL     1       4.868  15.357  92.348  1.00  0.00     0.127 HD
HETATM   35  H   UNL     1       6.278  15.705  91.846  1.00  0.00     0.127 HD
ENDBRANCH  26  31
ENDBRANCH  24  26
ENDBRANCH  19  22
ENDBRANCH  15  16
ENDBRANCH  11  14
ENDBRANCH   7   8
ENDBRANCH   2   7
TORSDOF 9
ENDMDL
MODEL 6
REMARK VINA RESULT:      -5.2      1.787     12.400
REMARK  9 active torsions:
REMARK  status: ('A' for Active; 'I' for Inactive)
REMARK    1  A    between atoms: O_2  and  C_17 
REMARK    2  A    between atoms: N_5  and  C_10 
REMARK    3  A    between atoms: N_6  and  C_14 
REMARK       I    between atoms: N_6  and  C_23 
REMARK       I    between atoms: N_7  and  C_22 
REMARK    4  A    between atoms: C_10  and  C_13 
REMARK    5  A    between atoms: C_14  and  C_17 
REMARK    6  A    between atoms: C_14  and  C_22 
REMARK    7  A    between atoms: C_20  and  C_25 
REMARK    8  A    between atoms: C_23  and  C_24 
REMARK    9  A    between atoms: C_28  and  C_31 
ROOT
HETATM    1  O   UNL     1       2.785  13.943  91.958  1.00  0.00    -0.388 OA
HETATM    2  N   UNL     1       3.107  12.480  89.538  1.00  0.00     0.096 N 
HETATM    3  C   UNL     1       3.281  11.841  90.850  1.00  0.00     0.299 C 
HETATM    4  C   UNL     1       3.444  13.908  89.624  1.00  0.00     0.299 C 
HETATM    5  C   UNL     1       2.428  12.561  91.892  1.00  0.00     0.198 C 
HETATM    6  C   UNL     1       2.589  14.578  90.694  1.00  0.00     0.198 C 
ENDROOT
BRANCH   2   7
HETATM    7  C   UNL     1       3.924  11.813  88.525  1.00  0.00     0.311 C 
BRANCH   7   8
HETATM    8  C   UNL     1       4.915  10.874  89.124  1.00  0.00    -0.030 A 
HETATM    9  C   UNL     1       6.194  11.326  89.450  1.00  0.00     0.010 A 
HETATM   10  C   UNL     1       7.123  10.448  90.008  1.00  0.00     0.021 A 
HETATM   11  C   UNL     1       6.772   9.119  90.241  1.00  0.00     0.018 A 
HETATM   12  C   UNL     1       5.495   8.666  89.916  1.00  0.00     0.021 A 
HETATM   13  C   UNL     1       4.566   9.544  89.357  1.00  0.00     0.010 A 
BRANCH  11  14
HETATM   14  C   UNL     1       7.724   8.218  90.815  1.00  0.00    -0.061 C 
HETATM   15  C   UNL     1       8.524   7.461  91.297  1.00  0.00    -0.061 C 
BRANCH  15  16
HETATM   16  C   UNL     1       9.476   6.562  91.870  1.00  0.00     0.018 A 
HETATM   17  C   UNL     1       9.792   6.653  93.226  1.00  0.00     0.022 A 
HETATM   18  C   UNL     1      10.719   5.773  93.785  1.00  0.00     0.018 A 
HETATM   19  C   UNL     1      11.308   4.823  92.977  1.00  0.00     0.032 A 
HETATM   20  C   UNL     1      11.013   4.713  91.635  1.00  0.00     0.018 A 
HETATM   21  C   UNL     1      10.086   5.592  91.074  1.00  0.00     0.022 A 
BRANCH  19  22
HETATM   22  C   UNL     1      12.297   3.887  93.573  1.00  0.00     0.252 C 
HETATM   23  O   UNL     1      11.898   2.863  94.123  1.00  0.00    -0.268 OA
HETATM   24  N   UNL     1      13.631   4.244  93.436  1.00  0.00    -0.342 N 
HETATM   25  H   UNL     1      13.887   5.094  92.947  1.00  0.00     0.163 HD
BRANCH  24  26
HETATM   26  C   UNL     1      14.707   3.429  93.939  1.00  0.00     0.199 C 
BRANCH  26  27
HETATM   27  C   UNL     1      14.851   2.103  93.181  1.00  0.00     0.145 C 
HETATM   28  C   UNL     1      14.694   0.891  94.092  1.00  0.00     0.042 C 
BRANCH  27  29
HETATM   29  O   UNL     1      13.871   2.036  92.147  1.00  0.00    -0.393 OA
HETATM   30  H   UNL     1      13.113   1.524  92.478  1.00  0.00     0.210 HD
ENDBRANCH  27  29
ENDBRANCH  26  27
BRANCH  26  31
HETATM   31  C   UNL     1      15.989   4.252  93.864  1.00  0.00     0.220 C 
HETATM   32  O   UNL     1      15.993   5.480  93.799  1.00  0.00    -0.278 OA
HETATM   33  N   UNL     1      17.113   3.462  93.839  1.00  0.00    -0.271 NA
HETATM   34  H   UNL     1      17.142   2.450  93.801  1.00  0.00     0.127 HD
HETATM   35  H   UNL     1      17.979   3.213  92.763  1.00  0.00     0.127 HD
ENDBRANCH  26  31
ENDBRANCH  24  26
ENDBRANCH  19  22
ENDBRANCH  15  16
ENDBRANCH  11  14
ENDBRANCH   7   8
ENDBRANCH   2   7
TORSDOF 9
ENDMDL
MODEL 7
REMARK VINA RESULT:      -5.2      2.065     12.418
REMARK  9 active torsions:
REMARK  status: ('A' for Active; 'I' for Inactive)
REMARK    1  A    between atoms: O_2  and  C_17 
REMARK    2  A    between atoms: N_5  and  C_10 
REMARK    3  A    between atoms: N_6  and  C_14 
REMARK       I    between atoms: N_6  and  C_23 
REMARK       I    between atoms: N_7  and  C_22 
REMARK    4  A    between atoms: C_10  and  C_13 
REMARK    5  A    between atoms: C_14  and  C_17 
REMARK    6  A    between atoms: C_14  and  C_22 
REMARK    7  A    between atoms: C_20  and  C_25 
REMARK    8  A    between atoms: C_23  and  C_24 
REMARK    9  A    between atoms: C_28  and  C_31 
ROOT
HETATM    1  O   UNL     1       5.446  14.659  88.884  1.00  0.00    -0.388 OA
HETATM    2  N   UNL     1       3.596  13.293  90.561  1.00  0.00     0.096 N 
HETATM    3  C   UNL     1       4.392  14.424  91.058  1.00  0.00     0.299 C 
HETATM    4  C   UNL     1       4.324  12.596  89.492  1.00  0.00     0.299 C 
HETATM    5  C   UNL     1       4.733  15.363  89.903  1.00  0.00     0.198 C 
HETATM    6  C   UNL     1       4.666  13.577  88.375  1.00  0.00     0.198 C 
ENDROOT
BRANCH   2   7
HETATM    7  C   UNL     1       3.267  12.374  91.650  1.00  0.00     0.311 C 
BRANCH   7   8
HETATM    8  C   UNL     1       4.302  11.317  91.834  1.00  0.00    -0.030 A 
HETATM    9  C   UNL     1       4.037  10.006  91.436  1.00  0.00     0.010 A 
HETATM   10  C   UNL     1       5.004   9.016  91.610  1.00  0.00     0.021 A 
HETATM   11  C   UNL     1       6.236   9.338  92.179  1.00  0.00     0.018 A 
HETATM   12  C   UNL     1       6.502  10.647  92.575  1.00  0.00     0.021 A 
HETATM   13  C   UNL     1       5.535  11.637  92.403  1.00  0.00     0.010 A 
BRANCH  11  14
HETATM   14  C   UNL     1       7.228   8.323  92.355  1.00  0.00    -0.061 C 
HETATM   15  C   UNL     1       8.063   7.470  92.502  1.00  0.00    -0.061 C 
BRANCH  15  16
HETATM   16  C   UNL     1       9.055   6.456  92.678  1.00  0.00     0.018 A 
HETATM   17  C   UNL     1       9.793   6.401  93.861  1.00  0.00     0.022 A 
HETATM   18  C   UNL     1      10.759   5.410  94.034  1.00  0.00     0.018 A 
HETATM   19  C   UNL     1      10.965   4.496  93.022  1.00  0.00     0.032 A 
HETATM   20  C   UNL     1      10.249   4.529  91.843  1.00  0.00     0.018 A 
HETATM   21  C   UNL     1       9.283   5.520  91.669  1.00  0.00     0.022 A 
BRANCH  19  22
HETATM   22  C   UNL     1      11.996   3.442  93.206  1.00  0.00     0.252 C 
HETATM   23  O   UNL     1      11.730   2.283  92.895  1.00  0.00    -0.268 OA
HETATM   24  N   UNL     1      13.219   3.868  93.706  1.00  0.00    -0.342 N 
HETATM   25  H   UNL     1      13.374   4.847  93.916  1.00  0.00     0.163 HD
BRANCH  24  26
HETATM   26  C   UNL     1      14.325   2.970  93.917  1.00  0.00     0.199 C 
BRANCH  26  27
HETATM   27  C   UNL     1      14.434   1.895  92.827  1.00  0.00     0.145 C 
HETATM   28  C   UNL     1      15.201   2.380  91.603  1.00  0.00     0.042 C 
BRANCH  27  29
HETATM   29  O   UNL     1      15.088   0.742  93.357  1.00  0.00    -0.393 OA
HETATM   30  H   UNL     1      16.039   0.931  93.415  1.00  0.00     0.210 HD
ENDBRANCH  27  29
ENDBRANCH  26  27
BRANCH  26  31
HETATM   31  C   UNL     1      15.597   3.808  93.997  1.00  0.00     0.220 C 
HETATM   32  O   UNL     1      15.593   5.037  93.949  1.00  0.00    -0.278 OA
HETATM   33  N   UNL     1      16.726   3.031  94.087  1.00  0.00    -0.271 NA
HETATM   34  H   UNL     1      16.772   2.020  94.039  1.00  0.00     0.127 HD
HETATM   35  H   UNL     1      17.710   2.807  93.112  1.00  0.00     0.127 HD
ENDBRANCH  26  31
ENDBRANCH  24  26
ENDBRANCH  19  22
ENDBRANCH  15  16
ENDBRANCH  11  14
ENDBRANCH   7   8
ENDBRANCH   2   7
TORSDOF 9
ENDMDL
MODEL 8
REMARK VINA RESULT:      -5.0      2.495     12.304
REMARK  9 active torsions:
REMARK  status: ('A' for Active; 'I' for Inactive)
REMARK    1  A    between atoms: O_2  and  C_17 
REMARK    2  A    between atoms: N_5  and  C_10 
REMARK    3  A    between atoms: N_6  and  C_14 
REMARK       I    between atoms: N_6  and  C_23 
REMARK       I    between atoms: N_7  and  C_22 
REMARK    4  A    between atoms: C_10  and  C_13 
REMARK    5  A    between atoms: C_14  and  C_17 
REMARK    6  A    between atoms: C_14  and  C_22 
REMARK    7  A    between atoms: C_20  and  C_25 
REMARK    8  A    between atoms: C_23  and  C_24 
REMARK    9  A    between atoms: C_28  and  C_31 
ROOT
HETATM    1  O   UNL     1       2.527  14.662  93.991  1.00  0.00    -0.388 OA
HETATM    2  N   UNL     1       2.528  14.469  91.151  1.00  0.00     0.096 N 
HETATM    3  C   UNL     1       1.404  13.968  91.955  1.00  0.00     0.299 C 
HETATM    4  C   UNL     1       3.774  14.395  91.927  1.00  0.00     0.299 C 
HETATM    5  C   UNL     1       1.306  14.760  93.256  1.00  0.00     0.198 C 
HETATM    6  C   UNL     1       3.620  15.176  93.229  1.00  0.00     0.198 C 
ENDROOT
BRANCH   2   7
HETATM    7  C   UNL     1       2.648  13.717  89.903  1.00  0.00     0.311 C 
BRANCH   7   8
HETATM    8  C   UNL     1       3.669  12.634  89.988  1.00  0.00    -0.030 A 
HETATM    9  C   UNL     1       4.730  12.604  89.082  1.00  0.00     0.010 A 
HETATM   10  C   UNL     1       5.685  11.591  89.159  1.00  0.00     0.021 A 
HETATM   11  C   UNL     1       5.580  10.609  90.144  1.00  0.00     0.018 A 
HETATM   12  C   UNL     1       4.522  10.638  91.050  1.00  0.00     0.021 A 
HETATM   13  C   UNL     1       3.566  11.651  90.972  1.00  0.00     0.010 A 
BRANCH  11  14
HETATM   14  C   UNL     1       6.561   9.571  90.224  1.00  0.00    -0.061 C 
HETATM   15  C   UNL     1       7.386   8.698  90.292  1.00  0.00    -0.061 C 
BRANCH  15  16
HETATM   16  C   UNL     1       8.366   7.661  90.374  1.00  0.00     0.018 A 
HETATM   17  C   UNL     1       8.534   6.776  89.308  1.00  0.00     0.022 A 
HETATM   18  C   UNL     1       9.492   5.766  89.386  1.00  0.00     0.018 A 
HETATM   19  C   UNL     1      10.260   5.663  90.527  1.00  0.00     0.032 A 
HETATM   20  C   UNL     1      10.113   6.524  91.594  1.00  0.00     0.018 A 
HETATM   21  C   UNL     1       9.155   7.535  91.517  1.00  0.00     0.022 A 
BRANCH  19  22
HETATM   22  C   UNL     1      11.280   4.585  90.611  1.00  0.00     0.252 C 
HETATM   23  O   UNL     1      11.409   3.807  89.669  1.00  0.00    -0.268 OA
HETATM   24  N   UNL     1      12.042   4.557  91.771  1.00  0.00    -0.342 N 
HETATM   25  H   UNL     1      11.895   5.249  92.497  1.00  0.00     0.163 HD
BRANCH  24  26
HETATM   26  C   UNL     1      13.085   3.589  91.990  1.00  0.00     0.199 C 
BRANCH  26  27
HETATM   27  C   UNL     1      14.478   4.126  91.637  1.00  0.00     0.145 C 
HETATM   28  C   UNL     1      15.515   3.016  91.502  1.00  0.00     0.042 C 
BRANCH  27  29
HETATM   29  O   UNL     1      14.413   4.851  90.409  1.00  0.00    -0.393 OA
HETATM   30  H   UNL     1      15.310   5.145  90.181  1.00  0.00     0.210 HD
ENDBRANCH  27  29
ENDBRANCH  26  27
BRANCH  26  31
HETATM   31  C   UNL     1      13.014   3.150  93.449  1.00  0.00     0.220 C 
HETATM   32  O   UNL     1      13.784   2.325  93.939  1.00  0.00    -0.278 OA
HETATM   33  N   UNL     1      11.978   3.750  94.122  1.00  0.00    -0.271 NA
HETATM   34  H   UNL     1      11.273   4.363  93.728  1.00  0.00     0.127 HD
HETATM   35  H   UNL     1      10.776   3.175  94.565  1.00  0.00     0.127 HD
ENDBRANCH  26  31
ENDBRANCH  24  26
ENDBRANCH  19  22
ENDBRANCH  15  16
ENDBRANCH  11  14
ENDBRANCH   7   8
ENDBRANCH   2   7
TORSDOF 9
ENDMDL
MODEL 9
REMARK VINA RESULT:      -5.0      1.644     12.348
REMARK  9 active torsions:
REMARK  status: ('A' for Active; 'I' for Inactive)
REMARK    1  A    between atoms: O_2  and  C_17 
REMARK    2  A    between atoms: N_5  and  C_10 
REMARK    3  A    between atoms: N_6  and  C_14 
REMARK       I    between atoms: N_6  and  C_23 
REMARK       I    between atoms: N_7  and  C_22 
REMARK    4  A    between atoms: C_10  and  C_13 
REMARK    5  A    between atoms: C_14  and  C_17 
REMARK    6  A    between atoms: C_14  and  C_22 
REMARK    7  A    between atoms: C_20  and  C_25 
REMARK    8  A    between atoms: C_23  and  C_24 
REMARK    9  A    between atoms: C_28  and  C_31 
ROOT
HETATM    1  O   UNL     1       4.072  14.382  90.956  1.00  0.00    -0.388 OA
HETATM    2  N   UNL     1       3.068  12.387  89.191  1.00  0.00     0.096 N 
HETATM    3  C   UNL     1       2.796  12.343  90.634  1.00  0.00     0.299 C 
HETATM    4  C   UNL     1       4.350  13.060  88.941  1.00  0.00     0.299 C 
HETATM    5  C   UNL     1       2.812  13.758  91.207  1.00  0.00     0.198 C 
HETATM    6  C   UNL     1       4.330  14.456  89.553  1.00  0.00     0.198 C 
ENDROOT
BRANCH   2   7
HETATM    7  C   UNL     1       3.067  11.040  88.623  1.00  0.00     0.311 C 
BRANCH   7   8
HETATM    8  C   UNL     1       4.184  10.203  89.146  1.00  0.00    -0.030 A 
HETATM    9  C   UNL     1       4.335  10.024  90.522  1.00  0.00     0.010 A 
HETATM   10  C   UNL     1       5.381   9.242  91.013  1.00  0.00     0.021 A 
HETATM   11  C   UNL     1       6.274   8.639  90.128  1.00  0.00     0.018 A 
HETATM   12  C   UNL     1       6.124   8.816  88.754  1.00  0.00     0.021 A 
HETATM   13  C   UNL     1       5.079   9.598  88.263  1.00  0.00     0.010 A 
BRANCH  11  14
HETATM   14  C   UNL     1       7.345   7.835  90.632  1.00  0.00    -0.061 C 
HETATM   15  C   UNL     1       8.246   7.161  91.055  1.00  0.00    -0.061 C 
BRANCH  15  16
HETATM   16  C   UNL     1       9.316   6.358  91.560  1.00  0.00     0.018 A 
HETATM   17  C   UNL     1      10.067   5.570  90.686  1.00  0.00     0.022 A 
HETATM   18  C   UNL     1      11.113   4.789  91.178  1.00  0.00     0.018 A 
HETATM   19  C   UNL     1      11.385   4.814  92.530  1.00  0.00     0.032 A 
HETATM   20  C   UNL     1      10.658   5.584  93.413  1.00  0.00     0.018 A 
HETATM   21  C   UNL     1       9.611   6.366  92.923  1.00  0.00     0.022 A 
BRANCH  19  22
HETATM   22  C   UNL     1      12.498   3.981  93.054  1.00  0.00     0.252 C 
HETATM   23  O   UNL     1      12.312   3.292  94.054  1.00  0.00    -0.268 OA
HETATM   24  N   UNL     1      13.684   4.030  92.335  1.00  0.00    -0.342 N 
HETATM   25  H   UNL     1      13.756   4.602  91.502  1.00  0.00     0.163 HD
BRANCH  24  26
HETATM   26  C   UNL     1      14.846   3.260  92.702  1.00  0.00     0.199 C 
BRANCH  26  27
HETATM   27  C   UNL     1      15.597   3.854  93.900  1.00  0.00     0.145 C 
HETATM   28  C   UNL     1      16.954   3.195  94.124  1.00  0.00     0.042 C 
BRANCH  27  29
HETATM   29  O   UNL     1      15.790   5.253  93.697  1.00  0.00    -0.393 OA
HETATM   30  H   UNL     1      15.007   5.721  94.034  1.00  0.00     0.210 HD
ENDBRANCH  27  29
ENDBRANCH  26  27
BRANCH  26  31
HETATM   31  C   UNL     1      14.388   1.833  92.986  1.00  0.00     0.220 C 
HETATM   32  O   UNL     1      14.926   1.111  93.824  1.00  0.00    -0.278 OA
HETATM   33  N   UNL     1      13.345   1.451  92.177  1.00  0.00    -0.271 NA
HETATM   34  H   UNL     1      12.938   1.986  91.419  1.00  0.00     0.127 HD
HETATM   35  H   UNL     1      13.360   0.543  91.107  1.00  0.00     0.127 HD
ENDBRANCH  26  31
ENDBRANCH  24  26
ENDBRANCH  19  22
ENDBRANCH  15  16
ENDBRANCH  11  14
ENDBRANCH   7   8
ENDBRANCH   2   7
TORSDOF 9
ENDMDL
