MODEL 1
REMARK VINA RESULT:      -6.8      0.000      0.000
REMARK  14 active torsions:
REMARK  status: ('A' for Active; 'I' for Inactive)
REMARK    1  A    between atoms: O_2  and  C_18 
REMARK    2  A    between atoms: C_5  and  C_8 
REMARK    3  A    between atoms: C_5  and  O_35 
REMARK    4  A    between atoms: C_5  and  C_36 
REMARK    5  A    between atoms: N_6  and  C_11 
REMARK    6  A    between atoms: N_7  and  C_15 
REMARK       I    between atoms: N_7  and  C_24 
REMARK    7  A    between atoms: C_8  and  C_23 
REMARK    8  A    between atoms: C_11  and  C_14 
REMARK    9  A    between atoms: C_15  and  C_18 
REMARK   10  A    between atoms: C_15  and  C_23 
REMARK   11  A    between atoms: C_21  and  C_26 
REMARK   12  A    between atoms: C_24  and  C_25 
REMARK   13  A    between atoms: C_29  and  C_32 
REMARK   14  A    between atoms: C_36  and  O_39 
ROOT
HETATM    1  O   UNL     1      16.455   3.245  93.730  1.00  0.00    -0.350 OA
HETATM    2  N   UNL     1      13.793   2.794  92.829  1.00  0.00     0.147 N 
HETATM    3  C   UNL     1      14.727   1.681  93.055  1.00  0.00     0.283 C 
HETATM    4  C   UNL     1      14.536   4.006  92.457  1.00  0.00     0.283 C 
HETATM    5  C   UNL     1      15.745   2.070  94.124  1.00  0.00     0.178 C 
HETATM    6  C   UNL     1      15.558   4.340  93.539  1.00  0.00     0.178 C 
ENDROOT
BRANCH   2   7
HETATM    7  C   UNL     1      12.815   2.447  91.800  1.00  0.00     0.277 C 
BRANCH   7   8
HETATM    8  C   UNL     1      11.675   3.407  91.754  1.00  0.00     0.011 A 
HETATM    9  C   UNL     1      10.900   3.513  90.599  1.00  0.00    -0.002 A 
HETATM   10  C   UNL     1       9.834   4.413  90.554  1.00  0.00     0.008 A 
HETATM   11  C   UNL     1       9.544   5.203  91.665  1.00  0.00     0.042 A 
HETATM   12  C   UNL     1      10.317   5.098  92.819  1.00  0.00     0.008 A 
HETATM   13  C   UNL     1      11.383   4.200  92.864  1.00  0.00    -0.002 A 
BRANCH  11  14
HETATM   14  C   UNL     1       8.450   6.124  91.619  1.00  0.00    -0.059 C 
HETATM   15  C   UNL     1       7.531   6.899  91.582  1.00  0.00    -0.059 C 
BRANCH  15  16
HETATM   16  C   UNL     1       6.438   7.819  91.536  1.00  0.00     0.042 A 
HETATM   17  C   UNL     1       5.560   7.912  92.616  1.00  0.00     0.008 A 
HETATM   18  C   UNL     1       4.495   8.813  92.572  1.00  0.00     0.005 A 
HETATM   19  C   UNL     1       4.333   9.600  91.451  1.00  0.00     0.056 A 
HETATM   20  C   UNL     1       5.187   9.526  90.371  1.00  0.00     0.005 A 
HETATM   21  C   UNL     1       6.252   8.626  90.413  1.00  0.00     0.008 A 
BRANCH  19  22
HETATM   22  C   UNL     1       3.198  10.557  91.404  1.00  0.00     0.254 C 
HETATM   23  O   UNL     1       2.070  10.139  91.153  1.00  0.00    -0.268 OA
HETATM   24  N   UNL     1       3.508  11.882  91.680  1.00  0.00    -0.335 N 
HETATM   25  HN  UNL     1       4.459  12.150  91.904  1.00  0.00     0.164 HD
BRANCH  24  26
HETATM   26  C   UNL     1       2.513  12.924  91.697  1.00  0.00     0.169 C 
BRANCH  26  27
HETATM   27  C   UNL     1       2.460  13.672  93.035  1.00  0.00     0.138 C 
HETATM   28  C   UNL     1       3.829  14.175  93.477  1.00  0.00     0.034 C 
BRANCH  27  29
HETATM   29  O   UNL     1       1.571  14.783  92.926  1.00  0.00    -0.383 OA
HETATM   30  H   UNL     1       2.090  15.565  92.676  1.00  0.00     0.210 HD
ENDBRANCH  27  29
ENDBRANCH  26  27
BRANCH  26  31
HETATM   31  C   UNL     1       2.813  13.874  90.542  1.00  0.00     0.194 C 
HETATM   32  O   UNL     1       1.942  14.519  89.962  1.00  0.00    -0.289 OA
BRANCH  31  33
HETATM   33  C   UNL     1       4.148  13.887  90.215  1.00  0.00     0.053 C 
BRANCH  33  34
HETATM   34  C   UNL     1       4.441  14.106  88.861  1.00  0.00     0.220 C 
BRANCH  34  35
HETATM   35  O   UNL     1       5.346  14.960  88.802  1.00  0.00    -0.371 OA
HETATM   36  H   UNL     1       5.259  15.307  89.677  1.00  0.00     0.211 HD
ENDBRANCH  34  35
BRANCH  34  37
HETATM   37  C   UNL     1       4.769  12.931  88.163  1.00  0.00     0.185 C 
HETATM   38  O   UNL     1       6.004  13.261  88.509  1.00  0.00    -0.647 OA
BRANCH  37  39
HETATM   39  O   UNL     1       4.190  12.098  87.534  1.00  0.00    -0.774 OA
HETATM   40  H   UNL     1       3.219  11.794  88.037  1.00  0.00     0.167 HD
ENDBRANCH  37  39
ENDBRANCH  34  37
ENDBRANCH  33  34
ENDBRANCH  31  33
ENDBRANCH  26  31
ENDBRANCH  24  26
ENDBRANCH  19  22
ENDBRANCH  15  16
ENDBRANCH  11  14
ENDBRANCH   7   8
ENDBRANCH   2   7
TORSDOF 14
ENDMDL
MODEL 2
REMARK VINA RESULT:      -5.7      1.075      1.638
REMARK  14 active torsions:
REMARK  status: ('A' for Active; 'I' for Inactive)
REMARK    1  A    between atoms: O_2  and  C_18 
REMARK    2  A    between atoms: C_5  and  C_8 
REMARK    3  A    between atoms: C_5  and  O_35 
REMARK    4  A    between atoms: C_5  and  C_36 
REMARK    5  A    between atoms: N_6  and  C_11 
REMARK    6  A    between atoms: N_7  and  C_15 
REMARK       I    between atoms: N_7  and  C_24 
REMARK    7  A    between atoms: C_8  and  C_23 
REMARK    8  A    between atoms: C_11  and  C_14 
REMARK    9  A    between atoms: C_15  and  C_18 
REMARK   10  A    between atoms: C_15  and  C_23 
REMARK   11  A    between atoms: C_21  and  C_26 
REMARK   12  A    between atoms: C_24  and  C_25 
REMARK   13  A    between atoms: C_29  and  C_32 
REMARK   14  A    between atoms: C_36  and  O_39 
ROOT
HETATM    1  O   UNL     1      15.983   4.569  93.743  1.00  0.00    -0.350 OA
HETATM    2  N   UNL     1      14.307   2.716  92.380  1.00  0.00     0.147 N 
HETATM    3  C   UNL     1      14.286   4.150  92.060  1.00  0.00     0.283 C 
HETATM    4  C   UNL     1      14.687   2.519  93.786  1.00  0.00     0.283 C 
HETATM    5  C   UNL     1      15.646   4.769  92.369  1.00  0.00     0.178 C 
HETATM    6  C   UNL     1      16.037   3.176  94.055  1.00  0.00     0.178 C 
ENDROOT
BRANCH   2   7
HETATM    7  C   UNL     1      13.009   2.103  92.102  1.00  0.00     0.277 C 
BRANCH   7   8
HETATM    8  C   UNL     1      11.891   3.087  92.172  1.00  0.00     0.011 A 
HETATM    9  C   UNL     1      11.728   3.875  93.312  1.00  0.00    -0.002 A 
HETATM   10  C   UNL     1      10.680   4.794  93.380  1.00  0.00     0.008 A 
HETATM   11  C   UNL     1       9.798   4.925  92.308  1.00  0.00     0.042 A 
HETATM   12  C   UNL     1       9.960   4.138  91.169  1.00  0.00     0.008 A 
HETATM   13  C   UNL     1      11.007   3.219  91.101  1.00  0.00    -0.002 A 
BRANCH  11  14
HETATM   14  C   UNL     1       8.725   5.869  92.377  1.00  0.00    -0.059 C 
HETATM   15  C   UNL     1       7.823   6.661  92.435  1.00  0.00    -0.059 C 
BRANCH  15  16
HETATM   16  C   UNL     1       6.750   7.604  92.504  1.00  0.00     0.042 A 
HETATM   17  C   UNL     1       6.964   8.862  93.069  1.00  0.00     0.008 A 
HETATM   18  C   UNL     1       5.918   9.782  93.134  1.00  0.00     0.005 A 
HETATM   19  C   UNL     1       4.683   9.425  92.633  1.00  0.00     0.056 A 
HETATM   20  C   UNL     1       4.447   8.188  92.071  1.00  0.00     0.005 A 
HETATM   21  C   UNL     1       5.492   7.267  92.005  1.00  0.00     0.008 A 
BRANCH  19  22
HETATM   22  C   UNL     1       3.569  10.405  92.704  1.00  0.00     0.254 C 
HETATM   23  O   UNL     1       2.621  10.182  93.454  1.00  0.00    -0.268 OA
HETATM   24  N   UNL     1       3.704  11.538  91.914  1.00  0.00    -0.335 N 
HETATM   25  HN  UNL     1       4.528  11.666  91.338  1.00  0.00     0.164 HD
BRANCH  24  26
HETATM   26  C   UNL     1       2.720  12.590  91.892  1.00  0.00     0.169 C 
BRANCH  26  27
HETATM   27  C   UNL     1       2.822  13.523  93.106  1.00  0.00     0.138 C 
HETATM   28  C   UNL     1       4.146  14.278  93.153  1.00  0.00     0.034 C 
BRANCH  27  29
HETATM   29  O   UNL     1       1.752  14.467  93.073  1.00  0.00    -0.383 OA
HETATM   30  H   UNL     1       1.093  14.205  93.738  1.00  0.00     0.210 HD
ENDBRANCH  27  29
ENDBRANCH  26  27
BRANCH  26  31
HETATM   31  C   UNL     1       2.889  13.359  90.586  1.00  0.00     0.194 C 
HETATM   32  O   UNL     1       2.183  14.317  90.276  1.00  0.00    -0.289 OA
BRANCH  31  33
HETATM   33  C   UNL     1       3.884  12.832  89.798  1.00  0.00     0.053 C 
BRANCH  33  34
HETATM   34  C   UNL     1       4.667  13.763  89.101  1.00  0.00     0.220 C 
BRANCH  34  35
HETATM   35  O   UNL     1       5.047  14.626  89.915  1.00  0.00    -0.371 OA
HETATM   36  H   UNL     1       4.431  14.436  90.607  1.00  0.00     0.211 HD
ENDBRANCH  34  35
BRANCH  34  37
HETATM   37  C   UNL     1       5.738  13.181  88.402  1.00  0.00     0.185 C 
HETATM   38  O   UNL     1       4.968  13.410  87.350  1.00  0.00    -0.647 OA
BRANCH  37  39
HETATM   39  O   UNL     1       6.792  12.687  88.671  1.00  0.00    -0.774 OA
HETATM   40  H   UNL     1       7.448  12.574  87.752  1.00  0.00     0.167 HD
ENDBRANCH  37  39
ENDBRANCH  34  37
ENDBRANCH  33  34
ENDBRANCH  31  33
ENDBRANCH  26  31
ENDBRANCH  24  26
ENDBRANCH  19  22
ENDBRANCH  15  16
ENDBRANCH  11  14
ENDBRANCH   7   8
ENDBRANCH   2   7
TORSDOF 14
ENDMDL
MODEL 3
REMARK VINA RESULT:      -4.0      1.926      2.898
REMARK  14 active torsions:
REMARK  status: ('A' for Active; 'I' for Inactive)
REMARK    1  A    between atoms: O_2  and  C_18 
REMARK    2  A    between atoms: C_5  and  C_8 
REMARK    3  A    between atoms: C_5  and  O_35 
REMARK    4  A    between atoms: C_5  and  C_36 
REMARK    5  A    between atoms: N_6  and  C_11 
REMARK    6  A    between atoms: N_7  and  C_15 
REMARK       I    between atoms: N_7  and  C_24 
REMARK    7  A    between atoms: C_8  and  C_23 
REMARK    8  A    between atoms: C_11  and  C_14 
REMARK    9  A    between atoms: C_15  and  C_18 
REMARK   10  A    between atoms: C_15  and  C_23 
REMARK   11  A    between atoms: C_21  and  C_26 
REMARK   12  A    between atoms: C_24  and  C_25 
REMARK   13  A    between atoms: C_29  and  C_32 
REMARK   14  A    between atoms: C_36  and  O_39 
ROOT
HETATM    1  O   UNL     1      16.918   3.872  92.917  1.00  0.00    -0.350 OA
HETATM    2  N   UNL     1      14.871   1.894  92.935  1.00  0.00     0.147 N 
HETATM    3  C   UNL     1      15.252   2.595  91.700  1.00  0.00     0.283 C 
HETATM    4  C   UNL     1      15.118   2.756  94.099  1.00  0.00     0.283 C 
HETATM    5  C   UNL     1      16.713   3.030  91.782  1.00  0.00     0.178 C 
HETATM    6  C   UNL     1      16.580   3.188  94.124  1.00  0.00     0.178 C 
ENDROOT
BRANCH   2   7
HETATM    7  C   UNL     1      13.471   1.478  92.883  1.00  0.00     0.277 C 
BRANCH   7   8
HETATM    8  C   UNL     1      12.538   2.636  92.781  1.00  0.00     0.011 A 
HETATM    9  C   UNL     1      12.355   3.481  93.876  1.00  0.00    -0.002 A 
HETATM   10  C   UNL     1      11.480   4.564  93.783  1.00  0.00     0.008 A 
HETATM   11  C   UNL     1      10.790   4.801  92.594  1.00  0.00     0.042 A 
HETATM   12  C   UNL     1      10.972   3.957  91.500  1.00  0.00     0.008 A 
HETATM   13  C   UNL     1      11.846   2.874  91.594  1.00  0.00    -0.002 A 
BRANCH  11  14
HETATM   14  C   UNL     1       9.894   5.912  92.498  1.00  0.00    -0.059 C 
HETATM   15  C   UNL     1       9.141   6.846  92.417  1.00  0.00    -0.059 C 
BRANCH  15  16
HETATM   16  C   UNL     1       8.245   7.956  92.321  1.00  0.00     0.042 A 
HETATM   17  C   UNL     1       8.582   9.175  92.909  1.00  0.00     0.008 A 
HETATM   18  C   UNL     1       7.709  10.259  92.813  1.00  0.00     0.005 A 
HETATM   19  C   UNL     1       6.521  10.100  92.132  1.00  0.00     0.056 A 
HETATM   20  C   UNL     1       6.165   8.904  91.542  1.00  0.00     0.005 A 
HETATM   21  C   UNL     1       7.037   7.820  91.638  1.00  0.00     0.008 A 
BRANCH  19  22
HETATM   22  C   UNL     1       5.590  11.254  92.031  1.00  0.00     0.254 C 
HETATM   23  O   UNL     1       5.303  11.882  93.047  1.00  0.00    -0.268 OA
HETATM   24  N   UNL     1       5.127  11.552  90.758  1.00  0.00    -0.335 N 
HETATM   25  HN  UNL     1       5.428  11.004  89.961  1.00  0.00     0.164 HD
BRANCH  24  26
HETATM   26  C   UNL     1       4.238  12.656  90.495  1.00  0.00     0.169 C 
BRANCH  26  27
HETATM   27  C   UNL     1       4.984  13.938  90.103  1.00  0.00     0.138 C 
HETATM   28  C   UNL     1       5.784  13.778  88.815  1.00  0.00     0.034 C 
BRANCH  27  29
HETATM   29  O   UNL     1       4.048  15.003  89.939  1.00  0.00    -0.383 OA
HETATM   30  H   UNL     1       4.103  15.318  89.021  1.00  0.00     0.210 HD
ENDBRANCH  27  29
ENDBRANCH  26  27
BRANCH  26  31
HETATM   31  C   UNL     1       3.269  12.222  89.400  1.00  0.00     0.194 C 
HETATM   32  O   UNL     1       2.673  13.020  88.678  1.00  0.00    -0.289 OA
BRANCH  31  33
HETATM   33  C   UNL     1       3.118  10.858  89.350  1.00  0.00     0.053 C 
BRANCH  33  34
HETATM   34  C   UNL     1       3.439  10.253  88.126  1.00  0.00     0.220 C 
BRANCH  34  35
HETATM   35  O   UNL     1       4.205  11.019  87.513  1.00  0.00    -0.371 OA
HETATM   36  H   UNL     1       3.665  11.167  86.752  1.00  0.00     0.211 HD
ENDBRANCH  34  35
BRANCH  34  37
HETATM   37  C   UNL     1       3.972   8.960  88.263  1.00  0.00     0.185 C 
HETATM   38  O   UNL     1       4.689   9.317  87.209  1.00  0.00    -0.647 OA
BRANCH  37  39
HETATM   39  O   UNL     1       3.799   8.013  88.971  1.00  0.00    -0.774 OA
HETATM   40  H   UNL     1       4.006   7.040  88.426  1.00  0.00     0.167 HD
ENDBRANCH  37  39
ENDBRANCH  34  37
ENDBRANCH  33  34
ENDBRANCH  31  33
ENDBRANCH  26  31
ENDBRANCH  24  26
ENDBRANCH  19  22
ENDBRANCH  15  16
ENDBRANCH  11  14
ENDBRANCH   7   8
ENDBRANCH   2   7
TORSDOF 14
ENDMDL
